Program Version,EnergyPlus-Darwin-64 8.1.0.009, YMD=2015.10.18 20:07
1,5,Environment Title[],Latitude[deg],Longitude[deg],Time Zone[],Elevation[m]
2,6,Day of Simulation[],Month[],Day of Month[],DST Indicator[1=yes 0=no],Hour[],StartMinute[],EndMinute[],DayType
3,3,Cumulative Day of Simulation[],Month[],Day of Month[],DST Indicator[1=yes 0=no],DayType  ! When Daily Report Variables Requested
4,2,Cumulative Days of Simulation[],Month[]  ! When Monthly Report Variables Requested
5,1,Cumulative Days of Simulation[] ! When Run Period Report Variables Requested
6,1,Environment,Site Outdoor Air Drybulb Temperature [C] !TimeStep
7,1,Environment,Site Outdoor Air Wetbulb Temperature [C] !TimeStep
8,1,Environment,Site Outdoor Air Relative Humidity [%] !TimeStep
9,1,Environment,Site Wind Speed [m/s] !TimeStep
10,1,Environment,Site Wind Direction [deg] !TimeStep
751,1,EMS,currentDayOfMonth [] !TimeStep
752,1,EMS,currentDayOfWeek [] !TimeStep
753,1,EMS,currentTimeOfDay [] !TimeStep
754,1,EMS,currentHoliday [] !TimeStep
827,1,BASEMENT,Zone Air Temperature [C] !TimeStep
860,1,CORE_BOTTOM,Zone Air Temperature [C] !TimeStep
893,1,CORE_MID,Zone Air Temperature [C] !TimeStep
926,1,CORE_TOP,Zone Air Temperature [C] !TimeStep
959,1,GROUNDFLOOR_PLENUM,Zone Air Temperature [C] !TimeStep
992,1,MIDFLOOR_PLENUM,Zone Air Temperature [C] !TimeStep
1025,1,PERIMETER_BOT_ZN_1,Zone Air Temperature [C] !TimeStep
1058,1,PERIMETER_BOT_ZN_2,Zone Air Temperature [C] !TimeStep
1091,1,PERIMETER_BOT_ZN_3,Zone Air Temperature [C] !TimeStep
1124,1,PERIMETER_BOT_ZN_4,Zone Air Temperature [C] !TimeStep
1157,1,PERIMETER_MID_ZN_1,Zone Air Temperature [C] !TimeStep
1190,1,PERIMETER_MID_ZN_2,Zone Air Temperature [C] !TimeStep
1223,1,PERIMETER_MID_ZN_3,Zone Air Temperature [C] !TimeStep
1256,1,PERIMETER_MID_ZN_4,Zone Air Temperature [C] !TimeStep
1289,1,PERIMETER_TOP_ZN_1,Zone Air Temperature [C] !TimeStep
1322,1,PERIMETER_TOP_ZN_2,Zone Air Temperature [C] !TimeStep
1355,1,PERIMETER_TOP_ZN_3,Zone Air Temperature [C] !TimeStep
1388,1,PERIMETER_TOP_ZN_4,Zone Air Temperature [C] !TimeStep
1421,1,TOPFLOOR_PLENUM,Zone Air Temperature [C] !TimeStep
1577,1,Whole Building,Facility Total Building Electric Demand Power [W] !TimeStep
1578,1,Whole Building,Facility Total HVAC Electric Demand Power [W] !TimeStep
1579,1,Whole Building,Facility Total Electric Demand Power [W] !TimeStep
1580,1,HTGSETP_SCH,Schedule Value [] !TimeStep
1581,1,HW-LOOP-TEMP-SCHEDULE,Schedule Value [] !TimeStep
1582,1,CW-LOOP-TEMP-SCHEDULE,Schedule Value [] !TimeStep
1583,1,CLGSETP_SCH,Schedule Value [] !TimeStep
1584,1,BLDG_LIGHT_SCH,Schedule Value [] !TimeStep
1821,1,COOLSYS1 CHILLER 1,Chiller Evaporator Outlet Temperature [C] !TimeStep
1835,1,COOLSYS1 CHILLER 2,Chiller Evaporator Outlet Temperature [C] !TimeStep
1869,1,HEATSYS1 BOILER,Boiler Outlet Temperature [C] !TimeStep
End of Data Dictionary
1,587017 587017 587017 TMY2 WMO#=587017,  41.99, -87.50,  -6.00, 172.00
2,1, 7,17, 1, 1, 0.00, 5.00,Thursday       
6,25.4916666666667
7,23.8148148340037
8,87.1666666666667
9,3.68333333333333
10,239.166666666667
751,17.
752,5.
753,8.333333333333333E-002
754,0.0
1580,15.6
1581,82.2
1582,6.7
1583,27.
1584,5.000000000000000E-002
827,24.7028176838974
860,24.5794787366634
893,24.6068501813848
926,24.7203254370614
959,25.1232395745516
992,25.0913047255357
1025,24.6884494756262
1058,23.8113848260973
1091,24.6614652323398
1124,23.8553133756301
1157,24.6845226711441
1190,23.6646117941599
1223,24.6812810234935
1256,23.744840187822
1289,24.8129130474137
1322,24.0622751020279
1355,24.7873875658217
1388,23.9182663446821
1421,25.6335045600441
1577,287767.469609045
1578,2.22371311083204
1579,287769.693322155
1821,9.45248074860302
1835,9.45248074860302
1869,80.0912729848941
2,1, 7,17, 1, 1, 5.00,10.00,Thursday       
6,25.3833333333333
7,23.732949326062
8,87.3333333333333
9,3.76666666666667
10,238.333333333333
751,17.
752,5.
753,0.166666666666667
754,0.0
1580,15.6
1581,82.2
1582,6.7
1583,27.
1584,5.000000000000000E-002
827,24.8781827037624
860,25.0533453782157
893,25.1003499458795
926,25.2931657478252
959,25.2545251230978
992,25.2267296917836
1025,25.2492881357038
1058,24.5674455680928
1091,25.1737271499604
1124,24.6859996165993
1157,25.2649667497549
1190,24.4355838327618
1223,25.209700249125
1256,24.6085478452617
1289,25.4356948940172
1322,24.8349388801212
1355,25.363826861024
1388,24.814912400702
1421,25.7942650930052
1577,287767.469609045
1578,2.2215900234812
1579,287769.691199068
1821,9.45248074860302
1835,9.45248074860302
1869,80.0912729848941
2,1, 7,17, 1, 1,10.00,15.00,Thursday       
6,25.275
7,23.6509695851131
8,87.5
9,3.85
10,237.5
751,17.
752,5.
753,0.25
754,0.0
1580,15.6
1581,82.2
1582,6.7
1583,27.
1584,5.000000000000000E-002
827,25.0002866576988
860,25.3569996067347
893,25.4150589920317
926,25.6502448273877
959,25.3395435250646
992,25.3141049255819
1025,25.5612422821828
1058,24.9792215892588
1091,25.4607863084358
1124,25.133682364214
1157,25.5853494784412
1190,24.8530034395179
1223,25.5033287239791
1256,25.0689088397762
1289,25.7720645604471
1322,25.2487192594696
1355,25.6776685176556
1388,25.2875010103547
1421,25.8750556311368
1577,287767.469609045
1578,2.21998106086235
1579,287769.689590105
1821,9.45248074860302
1835,9.45248074860302
1869,80.0912729848941
2,1, 7,17, 1, 1,15.00,20.00,Thursday       
6,25.1666666666667
7,23.5688463865049
8,87.6666666666667
9,3.93333333333333
10,236.666666666667
751,17.
752,5.
753,0.333333333333333
754,0.0
1580,15.6
1581,82.2
1582,6.7
1583,27.
1584,5.000000000000000E-002
827,25.0979999742347
860,25.6298368460292
893,25.6943434269263
926,25.957661949283
959,25.4142330382627
992,25.3905201678994
1025,25.8118068734519
1058,25.2984028587289
1091,25.6946940961104
1124,25.4775017314529
1157,25.8349397845172
1190,25.1747670734418
1223,25.7351663755097
1256,25.4175659743743
1289,26.0273169604497
1322,25.5613444699484
1355,25.9174784228449
1388,25.6391656843563
1421,25.9272549144965
1577,287767.469609045
1578,2.21888199499738
1579,287769.68849104
1821,9.45248074860302
1835,9.45248074860302
1869,80.0912729848941
2,1, 7,17, 1, 1,20.00,25.00,Thursday       
6,25.0583333333333
7,23.4866047784599
8,87.8333333333333
9,4.01666666666667
10,235.833333333333
751,17.
752,5.
753,0.416666666666667
754,0.0
1580,15.6
1581,82.2
1582,6.7
1583,27.
1584,5.000000000000000E-002
827,25.1445074226137
860,25.806674354226
893,25.8730508889685
926,26.1554138514357
959,25.4591109219984
992,25.4363114615716
1025,25.9424391171559
1058,25.479456439896
1091,25.8175277093233
1124,25.6668000967177
1157,25.9677974464963
1190,25.3614535816661
1223,25.8593333870889
1256,25.606715962501
1289,26.1685456839195
1322,25.7353092592808
1355,26.0519536015748
1388,25.8245593988558
1421,25.9479583481316
1577,287767.469609045
1578,2.21821421522185
1579,287769.68782326
1821,9.45248074860302
1835,9.45248074860302
1869,80.0912729848941
2,1, 7,17, 1, 1,25.00,30.00,Thursday       
6,24.95
7,23.404239514033
8,88.
9,4.1
10,235.
751,17.
752,5.
753,0.5
754,0.0
1580,15.6
1581,82.2
1582,6.7
1583,27.
1584,5.000000000000000E-002
827,25.1743903033393
860,25.9359403139892
893,26.0048490395312
926,26.3102578745023
959,25.4959437825432
992,25.4738003644542
1025,26.0258799402513
1058,25.6050330437863
1091,25.8959301838522
1124,25.8007845102791
1157,26.0545264279025
1190,25.4920383188482
1223,25.9398985983903
1256,25.7461257881341
1289,26.2668191594009
1322,25.8643041954751
1355,26.1459262833483
1388,25.9681548916287
1421,25.9588550261731
1577,287767.469609045
1578,2.21797969476237
1579,287769.687588739
1821,9.45248074860302
1835,9.45248074860302
1869,80.0912729848941
2,1, 7,17, 1, 1,30.00,35.00,Thursday       
6,24.8416666666667
7,23.3217348148089
8,88.1666666666667
9,4.18333333333333
10,234.166666666667
751,17.
752,5.
753,0.583333333333333
754,0.0
1580,15.6
1581,82.2
1582,6.7
1583,27.
1584,5.000000000000000E-002
827,25.1935298027054
860,26.0291504885282
893,26.1005490234035
926,26.4243161112887
959,25.527266296353
992,25.505551219014
1025,26.0798523539078
1058,25.6910561982906
1091,25.9462519587933
1124,25.8939192968249
1157,26.1112981352577
1190,25.5812147761139
1223,25.9921012833769
1256,25.8429702319224
1289,26.3323765429713
1322,25.9565134594327
1355,26.2086933101876
1388,26.0732608632653
1421,25.9632983797247
1577,287767.469609045
1578,2.21815580577219
1579,287769.68776485
1821,9.45248074860302
1835,9.45248074860302
1869,80.0912729848941
2,1, 7,17, 1, 1,35.00,40.00,Thursday       
6,24.7333333333333
7,23.2391041489526
8,88.3333333333333
9,4.26666666666667
10,233.333333333333
751,17.
752,5.
753,0.666666666666667
754,0.0
1580,15.6
1581,82.2
1582,6.7
1583,27.
1584,5.000000000000000E-002
827,25.2057272204402
860,26.0972749332712
893,26.1710338333656
926,26.5085366486075
959,25.5544093695814
992,25.5335079717232
1025,26.1157037130855
1058,25.751709783263
1091,25.9791766967871
1124,25.9604002717581
1157,26.149346108063
1190,25.6437290619909
1223,26.0265235688286
1256,25.9115393191763
1289,26.3766471054659
1322,26.0216948476861
1355,26.2508558520152
1388,26.1485432017982
1421,25.9635049098333
1577,287767.469609045
1578,2.21872173887936
1579,287769.688330783
1821,9.45248074860302
1835,9.45248074860302
1869,80.0912729848941
2,1, 7,17, 1, 1,40.00,45.00,Thursday       
6,24.625
7,23.156358195634
8,88.5
9,4.35
10,232.5
751,17.
752,5.
753,0.75
754,0.0
1580,15.6
1581,82.2
1582,6.7
1583,27.
1584,5.000000000000000E-002
827,25.2134305396555
860,26.1483049846773
893,26.224313608136
926,26.5719855138218
959,25.5766075091986
992,25.5564390759713
1025,26.1402582401121
1058,25.7961747343481
1091,26.0011977630396
1124,26.009680086711
1157,26.1756231731145
1190,25.6893330787464
1223,26.0497366345371
1256,25.9618787139096
1289,26.4072709774337
1322,26.0689039454621
1355,26.2796872753372
1388,26.2036894509895
1421,25.9607572329649
1577,287767.469609045
1578,2.21965832320041
1579,287769.689267368
1821,9.45248074860302
1835,9.45248074860302
1869,80.0912729848941
2,1, 7,17, 1, 1,45.00,50.00,Thursday       
6,24.5166666666667
7,23.0734838489255
8,88.6666666666667
9,4.43333333333333
10,231.666666666667
751,17.
752,5.
753,0.833333333333333
754,0.0
1580,15.6
1581,82.2
1582,6.7
1583,27.
1584,5.000000000000000E-002
827,25.2181638544255
860,26.1876669208424
893,26.265866821537
926,26.6211500911073
959,25.5945744955504
992,25.5751250375584
1025,26.1573639612695
1058,25.8297553332044
1091,26.0160646331247
1124,26.0472362542292
1157,26.1941397237868
1190,25.7237416160213
1223,26.065601717048
1256,25.9999620405223
1289,26.4288510404681
1322,26.1040118103698
1355,26.2996855875784
1388,26.2450919848881
1421,25.9557495533453
1577,287767.469609045
1578,2.22094786775194
1579,287769.690556912
1821,9.45248074860302
1835,9.45248074860302
1869,80.0912729848941
2,1, 7,17, 1, 1,50.00,55.00,Thursday       
6,24.4083333333333
7,22.9904735220642
8,88.8333333333333
9,4.51666666666667
10,230.833333333333
751,17.
752,5.
753,0.916666666666667
754,0.0
1580,15.6
1581,82.2
1582,6.7
1583,27.
1584,5.000000000000000E-002
827,25.2208503322079
860,26.2189505600442
893,26.2993348477251
926,26.6604304019271
959,25.6090755706216
992,25.5903108036823
1025,26.1693938632876
1058,25.8558372087944
1091,26.0260682599753
1124,26.076648781471
1157,26.2073867376092
1190,25.7505713621786
1223,26.0764920155873
1256,26.0296709585404
1289,26.4442870930929
1322,26.1308711873732
1355,26.31367966732
1388,26.2770557262178
1421,25.94889622168
1577,287767.469609045
1578,2.22257402132737
1579,287769.692183066
1821,9.45248074860302
1835,9.45248074860302
1869,80.0912729848941
2,1, 7,17, 1, 1,55.00,60.00,Thursday       
6,24.3
7,22.9073441237613
8,89.
9,4.6
10,230.
751,17.
752,5.
753,1.
754,0.0
1580,15.6
1581,82.2
1582,6.7
1583,27.
1584,5.000000000000000E-002
827,25.2221981014994
860,26.2445216737006
893,26.3271238895889
926,26.6927578084504
959,25.6207740338606
992,25.6026637792242
1025,26.1776614595135
1058,25.876295882297
1091,26.0325173434575
1124,26.0998814603554
1157,26.2167650049871
1190,25.7718374776893
1223,26.0837798164583
1256,26.0531626911309
1289,26.4552424289858
1322,26.1517020552846
1355,26.3233407714363
1388,26.3020601035892
1421,25.9403719036336
1577,287767.469609045
1578,2.22452164835886
1579,287769.694130693
1821,9.45248074860302
1835,9.45248074860302
1869,80.0912729848941
2,1, 7,17, 1, 2, 0.00, 5.00,Thursday       
6,24.275
7,22.8939196588832
8,89.0833333333333
9,4.6
10,230.
751,17.
752,5.
753,1.08333333333333
754,0.0
1580,15.6
1581,82.2
1582,6.7
1583,27.
1584,5.000000000000000E-002
827,25.2226751789137
860,26.2659583032973
893,26.3508407588005
926,26.720090323518
959,25.6307081744837
992,25.6132291342488
1025,26.1863554525275
1058,25.8958091402758
1091,26.0396158007776
1124,26.1216942017468
1157,26.2266464573353
1190,25.7923408416806
1223,26.0918021838579
1256,26.0753957238625
1289,26.4663555945028
1322,26.1715483643841
1355,26.3332738257068
1388,26.3253747215242
1421,25.9359463502304
1577,287767.469609045
1578,2.2267767186611
1579,287769.696385763
1821,9.45248074860302
1835,9.45248074860302
1869,80.0912729848941
2,1, 7,17, 1, 2, 5.00,10.00,Thursday       
6,24.25
7,22.880488307149
8,89.1666666666667
9,4.6
10,230.
751,17.
752,5.
753,1.16666666666667
754,0.0
1580,15.6
1581,82.2
1582,6.7
1583,27.
1584,5.000000000000000E-002
827,25.2225940109932
860,26.2841858776494
893,26.3714039279255
926,26.7435736824879
959,25.6391634346494
992,25.6222913187423
1025,26.1945935779296
1058,25.9137161674733
1091,26.0465037145368
1124,26.1414718264316
1157,26.2361991158239
1190,25.8114846076313
1223,26.099733061025
1256,26.0958519754236
1289,26.4769319709908
1322,26.1899388529944
1355,26.3428145582958
1388,26.3466656022643
1421,25.9332520440345
1577,287767.469609045
1578,2.2269020071851
1579,287769.696511052
1821,9.45248074860302
1835,9.45248074860302
1869,80.0912729848941
2,1, 7,17, 1, 2,10.00,15.00,Thursday       
6,24.225
7,22.8670441159617
8,89.25
9,4.6
10,230.
751,17.
752,5.
753,1.25
754,0.0
1580,15.6
1581,82.2
1582,6.7
1583,27.
1584,5.000000000000000E-002
827,25.2221501708587
860,26.3000477083709
893,26.3896837121276
926,26.7642624412437
959,25.6464267903352
992,25.6301470237968
1025,26.2021959950501
1058,25.9300787485928
1091,26.0529550799941
1124,26.1593642417294
1157,26.2452118219268
1190,25.8293120772223
1223,26.1073212615937
1256,26.1146581904714
1289,26.4868074864768
1322,26.206932640461
1355,26.3517825212141
1388,26.3661185677156
1421,25.9312388214114
1577,287767.469609045
1578,2.22480922147382
1579,287769.694418266
1821,9.45248074860302
1835,9.45248074860302
1869,80.0912729848941
2,1, 7,17, 1, 2,15.00,20.00,Thursday       
6,24.2
7,22.8535711518857
8,89.3333333333333
9,4.6
10,230.
751,17.
752,5.
753,1.33333333333333
754,0.0
1580,15.6
1581,82.2
1582,6.7
1583,27.
1584,5.000000000000000E-002
827,25.2214719112562
860,26.3141141999213
893,26.4062638765323
926,26.7828710626215
959,25.6527279796305
992,25.6370381039685
1025,26.2090437576612
1058,25.9448959056707
1091,26.0588338266005
1124,26.1754048394666
1157,26.2535543803685
1190,25.8458064605993
1223,26.1144223315925
1256,26.1318297968451
1289,26.4958775690339
1322,26.2225277475358
1355,26.3600748119256
1388,26.3837845505605
1421,25.9292916762189
1577,287767.469609045
1578,2.22299883934538
1579,287769.692607884
1821,9.45248074860302
1835,9.45248074860302
1869,80.0912729848941
2,1, 7,17, 1, 2,20.00,25.00,Thursday       
6,24.175
7,22.840086900443
8,89.4166666666667
9,4.6
10,230.
751,17.
752,5.
753,1.41666666666667
754,0.0
1580,15.6
1581,82.2
1582,6.7
1583,27.
1584,5.000000000000000E-002
827,25.2206442104531
860,26.3267537618317
893,26.4215131336604
926,26.799851315833
959,25.6582634747874
992,25.6431690360904
1025,26.2151426315755
1058,25.9582988819679
1091,26.0641120510005
1124,26.1897800659861
1157,26.2612184388484
1190,25.8610707488412
1223,26.1209957680921
1256,26.147524579239
1289,26.5041502964729
1322,26.2368336423689
1355,26.367677866357
1388,26.3998426509278
1421,25.9271642251081
1577,287767.469609045
1578,2.22168591728596
1579,287769.691294962
1821,9.45248074860302
1835,9.45248074860302
1869,80.0912729848941
2,1, 7,17, 1, 2,25.00,30.00,Thursday       
6,24.15
7,22.8265986956061
8,89.5
9,4.6
10,230.
751,17.
752,5.
753,1.5
754,0.0
1580,15.6
1581,82.2
1582,6.7
1583,27.
1584,5.000000000000000E-002
827,25.2197239407636
860,26.338233337072
893,26.4356953000552
926,26.8155224540723
959,25.6631750566347
992,25.6486873478221
1025,26.2204807705809
1058,25.9703311029271
1091,26.0687663522583
1124,26.2025513970878
1157,26.2681850060227
1190,25.8751324621826
1223,26.1270116092769
1256,26.1617902343066
1289,26.5116142946937
1322,26.2498839086968
1355,26.3745760910723
1388,26.4143546154565
1421,25.9246868435141
1577,287767.469609045
1578,2.2208424860626
1579,287769.690451531
1821,9.45248074860302
1835,9.45248074860302
1869,80.0912729848941
2,1, 7,17, 1, 2,30.00,35.00,Thursday       
6,24.125
7,22.813076762412
8,89.5833333333333
9,4.6
10,230.
751,17.
752,5.
753,1.58333333333333
754,0.0
1580,15.6
1581,82.2
1582,6.7
1583,27.
1584,5.000000000000000E-002
827,25.2187484108986
860,26.3487515123747
893,26.4490040156404
926,26.8301136659495
959,25.66758499392
992,25.6537183560138
1025,26.2251206598064
1058,25.9811450907301
1091,26.0728339534262
1124,26.2139116381956
1157,26.2745067315825
1190,25.8881203827509
1223,26.1324977122601
1256,26.1747956137236
1289,26.5183278960031
1322,26.2618057061152
1355,26.3808086092726
1388,26.4274969260995
1421,25.9218350692587
1577,287767.469609045
1578,2.22044294529086
1579,287769.69005199
1821,9.45248074860302
1835,9.45248074860302
1869,80.0912729848941
2,1, 7,17, 1, 2,35.00,40.00,Thursday       
6,24.1
7,22.7995442423672
8,89.6666666666667
9,4.6
10,230.
751,17.
752,5.
753,1.66666666666667
754,0.0
1580,15.6
1581,82.2
1582,6.7
1583,27.
1584,5.000000000000000E-002
827,25.2177421513014
860,26.3584596684669
893,26.4615848582499
926,26.843794866721
959,25.6715789774099
992,25.6583500111623
1025,26.2290847875442
1058,25.9908007980106
1091,26.0763298839391
1124,26.223932378625
1157,26.2802017037089
1190,25.9000819481139
1223,26.1374647746729
1256,26.18660144496
1289,26.524311027412
1322,26.2726474472344
1355,26.3863917105546
1388,26.4393359321799
1421,25.9185579420925
1577,287767.469609045
1578,2.22046381548875
1579,287769.69007286
1821,9.45248074860302
1835,9.45248074860302
1869,80.0912729848941
2,1, 7,17, 1, 2,40.00,45.00,Thursday       
6,24.075
7,22.7860072327964
8,89.75
9,4.6
10,230.
751,17.
752,5.
753,1.75
754,0.0
1580,15.6
1581,82.2
1582,6.7
1583,27.
1584,5.000000000000000E-002
827,25.2167212881703
860,26.3674756281344
893,26.4735495594157
926,26.8566935415216
959,25.6752336540863
992,25.6626597144489
1025,26.2324423713675
1058,25.9994357804081
1091,26.0793048367647
1124,26.2327818004743
1157,26.2853319936298
1190,25.9111356817197
1223,26.1419565690349
1256,26.1973564016399
1289,26.5296285985545
1322,26.2825247408188
1355,26.3913755163662
1388,26.4500238230491
1421,25.9148895082134
1577,287767.469609045
1578,2.22088352120485
1579,287769.690492566
1821,9.45248074860302
1835,9.45248074860302
1869,80.0912729848941
2,1, 7,17, 1, 2,45.00,50.00,Thursday       
6,24.05
7,22.7724326516845
8,89.8333333333333
9,4.6
10,230.
751,17.
752,5.
753,1.83333333333333
754,0.0
1580,15.6
1581,82.2
1582,6.7
1583,27.
1584,5.000000000000000E-002
827,25.2156964041981
860,26.3758930543721
893,26.484985717389
926,26.868909179615
959,25.6786013627861
992,25.666700512826
1025,26.2352218016805
1058,26.0071052790854
1091,26.0817825180623
1124,26.2405230586108
1157,26.2899231090124
1190,25.9213272571525
1223,26.1459938596367
1256,26.2071152737347
1289,26.5343068897385
1322,26.291483316389
1355,26.3957839386329
1388,26.4596184510821
1421,25.9108118387104
1577,287767.469609045
1578,2.2216822007331
1579,287769.691291245
1821,9.45248074860302
1835,9.45248074860302
1869,80.0912729848941
2,1, 7,17, 1, 2,50.00,55.00,Thursday       
6,24.025
7,22.7588553175599
8,89.9166666666667
9,4.6
10,230.
751,17.
752,5.
753,1.91666666666667
754,0.0
1580,15.6
1581,82.2
1582,6.7
1583,27.
1584,5.000000000000000E-002
827,25.2146744137372
860,26.3837876901749
893,26.4959632145708
926,26.8805197679571
959,25.6817311925228
992,25.6705212788133
1025,26.2374859607708
1058,26.0139254133526
1091,26.0838118942024
1124,26.2472961879734
1157,26.2940322841743
1190,25.9307573690068
1223,26.1496201375513
1256,26.2160020052706
1289,26.5384057350306
1322,26.2996216964771
1355,26.399665487209
1388,26.4682463856742
1421,25.9063722965832
1577,287767.469609045
1578,2.22284153865711
1579,287769.692450583
1821,9.45248074860302
1835,9.45248074860302
1869,80.0912729848941
2,1, 7,17, 1, 2,55.00,60.00,Thursday       
6,24.
7,22.7452593428022
8,90.
9,4.6
10,230.
751,17.
752,5.
753,2.
754,0.0
1580,15.6
1581,82.2
1582,6.7
1583,27.
1584,5.000000000000000E-002
827,25.2136597955002
860,26.3912218947442
893,26.5065388415882
926,26.8915892503472
959,25.6846557461578
992,25.6741546649375
1025,26.2392612519731
1058,26.0199424904495
1091,26.0854163292866
1124,26.2531530934946
1157,26.2976836980782
1190,25.9394647277231
1223,26.1528564677634
1256,26.2240617699185
1289,26.5419502700937
1322,26.3069788281703
1355,26.4030438168265
1388,26.4759551385983
1421,25.9015617896644
1577,287767.469609045
1578,2.22434461806624
1579,287769.693953663
1821,9.45248074860302
1835,9.45248074860302
1869,80.0912729848941
2,1, 7,17, 1, 3, 0.00, 5.00,Thursday       
6,23.975
7,22.7209629973791
8,90.
9,4.6
10,230.833333333333
751,17.
752,5.
753,2.08333333333333
754,0.0
1580,15.6
1581,82.2
1582,6.7
1583,27.
1584,5.000000000000000E-002
827,25.2126554543638
860,26.3982473612247
893,26.5167589081282
926,26.9021691540325
959,25.6874067361172
992,25.6776317276064
1025,26.2406055698376
1058,26.025256622855
1091,26.086643001185
1124,26.2582128180371
1157,26.3009273812519
1190,25.9475345093894
1223,26.1557431382883
1256,26.2313970088332
1289,26.5449921819725
1322,26.313637568099
1355,26.4059627974619
1388,26.48284847482
1421,25.8964203067574
1577,287767.469609045
1578,2.22617578977839
1579,287769.695784834
1821,9.45248074860302
1835,9.45248074860302
1869,80.0912729848941
2,1, 7,17, 1, 3, 5.00,10.00,Thursday       
6,23.95
7,22.6966738505005
8,90.
9,4.6
10,231.666666666667
751,17.
752,5.
753,2.16666666666667
754,0.0
1580,15.6
1581,82.2
1582,6.7
1583,27.
1584,5.000000000000000E-002
827,25.2116631435558
860,26.4049083097769
893,26.5266628017832
926,26.9123041984359
959,25.6900052695102
992,25.6809733850506
1025,26.2415414644652
1058,26.0299055650996
1091,26.0875124791038
1124,26.2625171840403
1157,26.303785429012
1190,25.9549993186045
1223,26.1582998207595
1256,26.2380454284864
1289,26.5475552509777
1322,26.3196315463661
1355,26.4084449648348
1388,26.4889666371392
1421,25.890944489845
1577,287767.469609045
1578,2.22832055631223
1579,287769.697929601
1821,9.45248074860302
1835,9.45248074860302
1869,80.0912729848941
2,1, 7,17, 1, 3,10.00,15.00,Thursday       
6,23.925
7,22.6723755244816
8,90.
9,4.6
10,232.5
751,17.
752,5.
753,2.25
754,0.0
1580,15.6
1581,82.2
1582,6.7
1583,27.
1584,5.000000000000000E-002
827,25.2106838978151
860,26.4112424927269
893,26.5362837656474
926,26.9220317297524
959,25.6924735250121
992,25.6842011229291
1025,26.2421125809045
1058,26.0339667488898
1091,26.0880599980143
1124,26.2661588586844
1157,26.3062981921464
1190,25.9619265359693
1223,26.1605583280347
1256,26.2440891518025
1289,26.5496832829194
1322,26.3250281200466
1355,26.410526832735
1388,26.4943947992838
1421,25.8851801847323
1577,287767.469609045
1578,2.228576524791
1579,287769.698185569
1821,9.45248074860302
1835,9.45248074860302
1869,80.0912729848941
2,1, 7,17, 1, 3,15.00,20.00,Thursday       
6,23.9
7,22.6480787603102
8,90.
9,4.6
10,233.333333333333
751,17.
752,5.
753,2.33333333333333
754,0.0
1580,15.6
1581,82.2
1582,6.7
1583,27.
1584,5.000000000000000E-002
827,25.2097182690594
860,26.417282530947
893,26.5456502337654
926,26.9313846909135
959,25.6948253682028
992,25.6873285080111
1025,26.2423369743319
1058,26.037469934741
1091,26.0883021045176
1124,26.2691706536497
1157,26.3084820828379
1190,25.9683407213493
1223,26.1625334568952
1256,26.2495563049621
1289,26.5513942066175
1322,26.329852629537
1355,26.4122255733996
1388,26.499163095851
1421,25.8791228379681
1577,287767.469609045
1578,2.22659868547665
1579,287769.69620773
1821,9.45248074860302
1835,9.45248074860302
1869,80.0912729848941
2,1, 7,17, 1, 3,20.00,25.00,Thursday       
6,23.875
7,22.6237846197243
8,90.
9,4.6
10,234.166666666667
751,17.
752,5.
753,2.41666666666667
754,0.0
1580,15.6
1581,82.2
1582,6.7
1583,27.
1584,5.000000000000000E-002
827,25.2087664851759
860,26.4230567983565
893,26.5547867063866
926,26.940391200907
959,25.6970763520595
992,25.6903703864367
1025,26.2422521742121
1058,26.0404799792276
1091,26.0882695790007
1124,26.2716297636749
1157,26.3103709516305
1190,25.9742977612753
1223,26.164252411772
1256,26.2545143656278
1289,26.5527250930383
1322,26.3341612419083
1355,26.4135725913786
1388,26.5033417763687
1421,25.8728128989493
1577,287767.469609045
1578,2.22466217381348
1579,287769.694271218
1821,9.45248074860302
1835,9.45248074860302
1869,80.0912729848941
2,1, 7,17, 1, 3,25.00,30.00,Thursday       
6,23.85
7,22.5994907839909
8,90.
9,4.6
10,235.
751,17.
752,5.
753,2.5
754,0.0
1580,15.6
1581,82.2
1582,6.7
1583,27.
1584,5.000000000000000E-002
827,25.2078285569429
860,26.4285902026225
893,26.5637145109217
926,26.9490766925285
959,25.6992359029828
992,25.6933358611886
1025,26.2418733951889
1058,26.0430213118928
1091,26.0879765323985
1124,26.273562905775
1157,26.3119783176033
1190,25.979817558045
1223,26.1657275620049
1256,26.2589858541276
1289,26.5536909068842
1322,26.3379746301619
1355,26.4145823815415
1388,26.5069550860386
1421,25.8662463486276
1577,287767.469609045
1578,2.22323104196263
1579,287769.692840087
1821,9.45248074860302
1835,9.45248074860302
1869,80.0912729848941
2,1, 7,17, 1, 3,30.00,35.00,Thursday       
6,23.825
7,22.5751988281497
8,90.
9,4.6
10,235.833333333333
751,17.
752,5.
753,2.58333333333333
754,0.0
1580,15.6
1581,82.2
1582,6.7
1583,27.
1584,5.000000000000000E-002
827,25.2069043503026
860,26.4339046960243
893,26.5724522966754
926,26.9574631891428
959,25.7013152966244
992,25.6962355364825
1025,26.241232100167
1058,26.0451476173761
1091,26.0874490141055
1124,26.2750337776108
1157,26.3133323465743
1190,25.9849462322407
1223,26.1669817508432
1256,26.2630261819957
1289,26.5543229877925
1322,26.3413395862634
1355,26.415281707192
1388,26.5100611835296
1421,25.8594590085145
1577,287767.469609045
1578,2.22227664922634
1579,287769.691885694
1821,9.45248074860302
1835,9.45248074860302
1869,80.0912729848941
2,1, 7,17, 1, 3,35.00,40.00,Thursday       
6,23.8
7,22.5509053769461
8,90.
9,4.6
10,236.666666666667
751,17.
752,5.
753,2.66666666666667
754,0.0
1580,15.6
1581,82.2
1582,6.7
1583,27.
1584,5.000000000000000E-002
827,25.2059936353674
860,26.4390197652194
893,26.5810165032545
926,26.9655709572022
959,25.7033211594724
992,25.6990757248577
1025,26.2403407988053
1058,26.0468787208308
1091,26.0866987054431
1124,26.276063942307
1157,26.3144439396839
1190,25.9896997030575
1223,26.1680250171053
1256,26.266653240371
1289,26.5546336404389
1322,26.344272801572
1355,26.4156825366453
1388,26.5126795123824
1421,25.8524479980476
1577,287767.469609045
1578,2.22177279498632
1579,287769.69138184
1821,9.45248074860302
1835,9.45248074860302
1869,80.0912729848941
2,1, 7,17, 1, 3,40.00,45.00,Thursday       
6,23.775
7,22.5266110510087
8,90.
9,4.6
10,237.5
751,17.
752,5.
753,2.75
754,0.0
1580,15.6
1581,82.2
1582,6.7
1583,27.
1584,5.000000000000000E-002
827,25.2050961197265
860,26.4439527431587
893,26.5894216565605
926,26.9734177226067
959,25.7052619051503
992,25.7018642227764
1025,26.2392257734359
1058,26.0482590447547
1091,26.0857475173872
1124,26.2767059785821
1157,26.3153364778214
1190,25.9941160507244
1223,26.1688764355328
1256,26.2699125998785
1289,26.5546493487011
1322,26.3468133086
1355,26.4158076003339
1388,26.5148583619968
1421,25.8452448816928
1577,287767.469609045
1578,2.22169546172281
1579,287769.691304506
1821,9.45248074860302
1835,9.45248074860302
1869,80.0912729848941
2,1, 7,17, 1, 3,45.00,50.00,Thursday       
6,23.75
7,22.5023148156452
8,90.
9,4.6
10,238.333333333333
751,17.
752,5.
753,2.83333333333333
754,0.0
1580,15.6
1581,82.2
1582,6.7
1583,27.
1584,5.000000000000000E-002
827,25.2042114710915
860,26.4487191353657
893,26.5976806755769
926,26.9810199920916
959,25.7071423068124
992,25.7046055382003
1025,26.237897257965
1058,26.0493046688048
1091,26.0846050437786
1124,26.2769773022758
1157,26.3160186975025
1190,25.9982079797655
1223,26.1695440743972
1256,26.2728184709915
1289,26.5543801874388
1322,26.3489745487585
1355,26.4156667031738
1388,26.5166133456846
1421,25.8378480986911
1577,287767.469609045
1578,2.22202259042929
1579,287769.691631635
1821,9.45248074860302
1835,9.45248074860302
1869,80.0912729848941
2,1, 7,17, 1, 3,50.00,55.00,Thursday       
6,23.725
7,22.4780266744127
8,90.
9,4.6
10,239.166666666667
751,17.
752,5.
753,2.91666666666667
754,0.0
1580,15.6
1581,82.2
1582,6.7
1583,27.
1584,5.000000000000000E-002
827,25.2033393326583
860,26.4533328209821
893,26.6058050594412
926,26.9883923125383
959,25.7089688915395
992,25.7073055427834
1025,26.2363772153063
1058,26.0500523932946
1091,26.0832897005088
1124,26.276921388486
1157,26.3165100405595
1190,26.0020070178618
1223,26.1700438654053
1256,26.2754084447589
1289,26.5538486042178
1322,26.3507891792887
1355,26.4152791711675
1388,26.5179847226067
1421,25.8302852140978
1577,287767.469609045
1578,2.22273388371757
1579,287769.692342928
1821,9.45248074860302
1835,9.45248074860302
1869,80.0912729848941
2,1, 7,17, 1, 3,55.00,60.00,Thursday       
6,23.7
7,22.4537384034651
8,90.
9,4.6
10,240.
751,17.
752,5.
753,3.
754,0.0
1580,15.6
1581,82.2
1582,6.7
1583,27.
1584,5.000000000000000E-002
827,25.2024793334422
860,26.457806281943
893,26.6138050997424
926,26.995548338261
959,25.7107453221542
992,25.7099675379774
1025,26.2346740111245
1058,26.0505152452417
1091,26.0818093453647
1124,26.2765523335193
1157,26.3168174978845
1190,26.0055233026994
1223,26.1703822652881
1256,26.2776938263779
1289,26.5530628485759
1322,26.3522680008265
1355,26.4146530040735
1388,26.5189850643453