Program Version,EnergyPlus-Windows-64 8.0.0.008, YMD=2015.08.28 13:23
1,5,Environment Title[],Latitude[deg],Longitude[deg],Time Zone[],Elevation[m]
2,6,Day of Simulation[],Month[],Day of Month[],DST Indicator[1=yes 0=no],Hour[],StartMinute[],EndMinute[],DayType
3,3,Cumulative Day of Simulation[],Month[],Day of Month[],DST Indicator[1=yes 0=no],DayType  ! When Daily Report Variables Requested
4,2,Cumulative Days of Simulation[],Month[]  ! When Monthly Report Variables Requested
5,1,Cumulative Days of Simulation[] ! When Run Period Report Variables Requested
6,1,Environment,Site Outdoor Air Drybulb Temperature [C] !Hourly
7,1,Environment,Site Outdoor Air Relative Humidity [%] !Hourly
8,1,Environment,Site Wind Speed [m/s] !Hourly
9,1,Environment,Site Wind Direction [deg] !Hourly
10,1,Environment,Site Direct Solar Radiation Rate per Area [W/m2] !Hourly
11,1,SPACE1-1,Zone People Occupant Count [] !Hourly
12,1,SPACE2-1,Zone People Occupant Count [] !Hourly
13,1,SPACE3-1,Zone People Occupant Count [] !Hourly
14,1,SPACE4-1,Zone People Occupant Count [] !Hourly
15,1,SPACE5-1,Zone People Occupant Count [] !Hourly
77,1,SPACE1-1,Zone Lights Total Heating Energy [J] !Hourly
99,1,SPACE2-1,Zone Lights Total Heating Energy [J] !Hourly
121,1,SPACE3-1,Zone Lights Total Heating Energy [J] !Hourly
143,1,SPACE4-1,Zone Lights Total Heating Energy [J] !Hourly
165,1,SPACE5-1,Zone Lights Total Heating Energy [J] !Hourly
313,1,PLENUM-1,Zone Air Temperature [C] !Hourly
346,1,SPACE1-1,Zone Air Temperature [C] !Hourly
379,1,SPACE2-1,Zone Air Temperature [C] !Hourly
412,1,SPACE3-1,Zone Air Temperature [C] !Hourly
445,1,SPACE4-1,Zone Air Temperature [C] !Hourly
478,1,SPACE5-1,Zone Air Temperature [C] !Hourly
596,1,SPACE1-1 BASEBOARD,Baseboard Total Heating Rate [W] !Hourly
639,1,SPACE3-1 BASEBOARD,Baseboard Total Heating Rate [W] !Hourly
End of Data Dictionary
1,CHICAGO_IL_USA ANNUAL HEATING 99% DESIGN CONDITIONS DB,  41.98, -87.92,  -6.00, 201.00
2,1, 1,21, 0, 1, 0.00,60.00,WinterDesignDay
6,-16.6
7,100.
8,4.9
9,270.
10,0.0
11,0.0
12,0.0
13,0.0
14,0.0
15,0.0
77,285120.
99,123120.
121,285120.
143,123120.
165,533520.
313,17.4852629048904
346,22.1512433322555
379,22.0002193509266
412,22.1500384718304
445,22.0002193479182
478,22.0009537393148
596,3332.89945159595
639,3212.67581946615
2,1, 1,21, 0, 2, 0.00,60.00,WinterDesignDay
6,-16.6
7,100.
8,4.9
9,270.
10,0.0
11,0.0
12,0.0
13,0.0
14,0.0
15,0.0
77,285120.
99,123120.
121,285120.
143,123120.
165,533520.
313,17.4849936418581
346,22.1510733690281
379,22.0002192868363
412,22.1504053887918
445,22.0002192843546
478,22.000953697447
596,3332.89993838901
639,3213.60652024021
2,1, 1,21, 0, 3, 0.00,60.00,WinterDesignDay
6,-16.6
7,100.
8,4.9
9,270.
10,0.0
11,0.0
12,0.0
13,0.0
14,0.0
15,0.0
77,285120.
99,123120.
121,285120.
143,123120.
165,533520.
313,17.4848556693082
346,22.1509680705669
379,22.0002192871173
412,22.1504919498282
445,22.0002192846049
478,22.0009536980836
596,3332.90028628066
639,3213.60561976599
2,1, 1,21, 0, 4, 0.00,60.00,WinterDesignDay
6,-16.6
7,100.
8,4.9
9,270.
10,0.0
11,0.0
12,0.0
13,0.0
14,0.0
15,0.0
77,285120.
99,123120.
121,285120.
143,123120.
165,533520.
313,17.484752628995
346,22.1509002498713
379,22.0002192874281
412,22.1504861034522
445,22.0002192849162
478,22.0009536985324
596,3332.90048591076
639,3213.60548518289
2,1, 1,21, 0, 5, 0.00,60.00,WinterDesignDay
6,-16.6
7,100.
8,4.9
9,270.
10,0.0
11,0.0
12,0.0
13,0.0
14,0.0
15,0.0
77,285120.
99,123120.
121,285120.
143,123120.
165,533520.
313,17.484679671291
346,22.1508549410978
379,22.0002192876621
412,22.1504661148259
445,22.0002192851507
478,22.0009536988911
596,3332.90061052093
639,3213.60546599104
2,1, 1,21, 0, 6, 0.00,60.00,WinterDesignDay
6,-16.6
7,100.
8,4.9
9,270.
10,0.0
11,0.0
12,0.0
13,0.0
14,0.0
15,0.0
77,285120.
99,123120.
121,285120.
143,123120.
165,533520.
313,17.484628229398
346,22.1508242777065
379,22.0002192878353
412,22.1504474862391
445,22.0002192853242
478,22.0009536991599
596,3332.90069073057
639,3213.60547739057
2,1, 1,21, 0, 7, 0.00,60.00,WinterDesignDay
6,-16.6
7,100.
8,4.9
9,270.
10,0.0
11,0.0
12,0.0
13,0.0
14,0.0
15,0.0
77,285120.
99,123120.
121,285120.
143,123120.
165,533520.
313,17.4873436203548
346,22.1612959330673
379,22.0002335773627
412,22.1597444321433
445,22.0002335408366
478,22.001015422977
596,3543.45597991807
639,3414.43793941178
2,1, 1,21, 0, 8, 0.00,60.00,WinterDesignDay
6,-16.6
7,100.
8,4.9
9,270.
10,0.0
11,0.0
12,0.0
13,0.0
14,0.0
15,0.0
77,285120.
99,123120.
121,285120.
143,123120.
165,533520.
313,17.4899913060125
346,22.1605661842035
379,22.0002342922443
412,22.1599826619179
445,22.0002342890163
478,22.0010151326969
596,3535.51533255376
639,3406.97033815116
2,1, 1,21, 0, 9, 0.00,60.00,WinterDesignDay
6,-16.6
7,100.
8,4.9
9,270.
10,0.0
11,0.0
12,0.0
13,0.0
14,0.0
15,0.0
77,285120.
99,123120.
121,285120.
143,123120.
165,533520.
313,17.4914914345112
346,22.1624280074072
379,22.0002345538032
412,22.1590235799926
445,22.0002345511361
478,22.00101534345
596,3535.5046407617
639,3405.12531902021
2,1, 1,21, 0,10, 0.00,60.00,WinterDesignDay
6,-16.6
7,100.
8,4.9
9,270.
10,0.0
11,0.0
12,0.0
13,0.0
14,0.0
15,0.0
77,285120.
99,123120.
121,285120.
143,123120.
165,533520.
313,17.4926261524915
346,22.1634968007822
379,22.0002345471183
412,22.1596711784055
445,22.0002345444611
478,22.0010153315238
596,3535.49921588736
639,3405.1227291344
2,1, 1,21, 0,11, 0.00,60.00,WinterDesignDay
6,-16.6
7,100.
8,4.9
9,270.
10,0.0
11,0.0
12,0.0
13,0.0
14,0.0
15,0.0
77,285120.
99,123120.
121,285120.
143,123120.
165,533520.
313,17.4933942885994
346,22.1627709489275
379,22.0002345920464
412,22.1601208510263
445,22.0002345893585
478,22.0010153257209
596,3534.5247320385
639,3405.12078311014
2,1, 1,21, 0,12, 0.00,60.00,WinterDesignDay
6,-16.6
7,100.
8,4.9
9,270.
10,0.0
11,0.0
12,0.0
13,0.0
14,0.0
15,0.0
77,285120.
99,123120.
121,285120.
143,123120.
165,533520.
313,17.4938891647111
346,22.1628147328632
379,22.0002345897952
412,22.1603964646462
445,22.0002345871209
478,22.0010153221495
596,3534.5250045318
639,3405.11957388706
2,1, 1,21, 0,13, 0.00,60.00,WinterDesignDay
6,-16.6
7,100.
8,4.9
9,270.
10,0.0
11,0.0
12,0.0
13,0.0
14,0.0
15,0.0
77,285120.
99,123120.
121,285120.
143,123120.
165,533520.
313,17.4942133930484
346,22.1622206030582
379,22.0002346309366
412,22.1605637493978
445,22.0002346279535
478,22.0010153227671
596,3533.55453840823
639,3405.11885149384
2,1, 1,21, 0,14, 0.00,60.00,WinterDesignDay
6,-16.6
7,100.
8,4.9
9,270.
10,0.0
11,0.0
12,0.0
13,0.0
14,0.0
15,0.0
77,285120.
99,123120.
121,285120.
143,123120.
165,533520.
313,17.4944311122772
346,22.1624008872365
379,22.000234593669
412,22.1606656634171
445,22.0002345912134
478,22.001015317935
596,3534.52421477268
639,3405.11843220409
2,1, 1,21, 0,15, 0.00,60.00,WinterDesignDay
6,-16.6
7,100.
8,4.9
9,270.
10,0.0
11,0.0
12,0.0
13,0.0
14,0.0
15,0.0
77,285120.
99,123120.
121,285120.
143,123120.
165,533520.
313,17.4945875953805
346,22.162708478379
379,22.0002345873288
412,22.1607290691277
445,22.0002345847284
478,22.0010153169821
596,3534.52468143548
639,3405.11816909226
2,1, 1,21, 0,16, 0.00,60.00,WinterDesignDay
6,-16.6
7,100.
8,4.9
9,270.
10,0.0
11,0.0
12,0.0
13,0.0
14,0.0
15,0.0
77,285120.
99,123120.
121,285120.
143,123120.
165,533520.
313,17.4947044447812
346,22.1623101043046
379,22.0002346289579
412,22.1607691929035
445,22.000234625971
478,22.0010153197847
596,3533.55431797247
639,3405.11802045357
2,1, 1,21, 0,17, 0.00,60.00,WinterDesignDay
6,-16.6
7,100.
8,4.9
9,270.
10,0.0
11,0.0
12,0.0
13,0.0
14,0.0
15,0.0
77,285120.
99,123120.
121,285120.
143,123120.
165,533520.
313,17.4947709995286
346,22.1624819251421
379,22.0002345922915
412,22.1607951637112
445,22.0002345898333
478,22.0010153158491
596,3534.52396483516
639,3405.11792676218
2,1, 1,21, 0,18, 0.00,60.00,WinterDesignDay
6,-16.6
7,100.
8,4.9
9,270.
10,0.0
11,0.0
12,0.0
13,0.0
14,0.0
15,0.0
77,285120.
99,123120.
121,285120.
143,123120.
165,533520.
313,17.4948219630986
346,22.1627678078585
379,22.00023458638
412,22.1608118441311
445,22.0002345837777
478,22.0010153155499
596,3534.52448753123
639,3405.11785594848
2,1, 1,21, 0,19, 0.00,60.00,WinterDesignDay
6,-16.6
7,100.
8,4.9
9,270.
10,0.0
11,0.0
12,0.0
13,0.0
14,0.0
15,0.0
77,285120.
99,123120.
121,285120.
143,123120.
165,533520.
313,17.4919774020958
346,22.1527130094492
379,22.0002198267392
412,22.1494247648552
445,22.0002198585452
478,22.0009527619084
596,3323.13596925343
639,3202.19762235176
2,1, 1,21, 0,20, 0.00,60.00,WinterDesignDay
6,-16.6
7,100.
8,4.9
9,270.
10,0.0
11,0.0
12,0.0
13,0.0
14,0.0
15,0.0
77,285120.
99,123120.
121,285120.
143,123120.
165,533520.
313,17.4892424243747
346,22.1525515584124
379,22.0002194475657
412,22.1493052559506
445,22.0002194451987
478,22.0009538359604
596,3330.9434507707
639,3209.92571875186
2,1, 1,21, 0,21, 0.00,60.00,WinterDesignDay
6,-16.6
7,100.
8,4.9
9,270.
10,0.0
11,0.0
12,0.0
13,0.0
14,0.0
15,0.0
77,285120.
99,123120.
121,285120.
143,123120.
165,533520.
313,17.4878463995627
346,22.1533614235117
379,22.0002193484476
412,22.150732221968
445,22.000219345844
478,22.0009537193951
596,3332.8924171015
639,3212.67115628907
2,1, 1,21, 0,22, 0.00,60.00,WinterDesignDay
6,-16.6
7,100.
8,4.9
9,270.
10,0.0
11,0.0
12,0.0
13,0.0
14,0.0
15,0.0
77,285120.
99,123120.
121,285120.
143,123120.
165,533520.
313,17.486864275468
346,22.1525201446718
379,22.0002193550464
412,22.1502785608791
445,22.0002193525135
478,22.0009537287221
596,3332.89520033284
639,3212.67275300668
2,1, 1,21, 0,23, 0.00,60.00,WinterDesignDay
6,-16.6
7,100.
8,4.9
9,270.
10,0.0
11,0.0
12,0.0
13,0.0
14,0.0
15,0.0
77,285120.
99,123120.
121,285120.
143,123120.
165,533520.
313,17.4861124279331
346,22.1519114052992
379,22.0002193583991
412,22.149755843135
445,22.0002193558735
478,22.000953734403
596,3332.89727083758
639,3212.67429036376
2,1, 1,21, 0,24, 0.00,60.00,WinterDesignDay
6,-16.6
7,100.
8,4.9
9,270.
10,0.0
11,0.0
12,0.0
13,0.0
14,0.0
15,0.0
77,285120.
99,123120.
121,285120.
143,123120.
165,533520.
313,17.4855618977157
346,22.151502812306
379,22.0002192955411
412,22.14994070277
445,22.0002192935142
478,22.0009536949568
596,3332.89858038192
639,3213.60528503311
1,CHICAGO_IL_USA ANNUAL COOLING 1% DESIGN CONDITIONS DB/MCWB,  41.98, -87.92,  -6.00, 201.00
2,1, 7,21, 0, 1, 0.00,60.00,SummerDesignDay
6,22.59625
7,82.616415277035
8,5.2
9,230.
10,0.0
11,0.0
12,0.0
13,0.0
14,0.0
15,0.0
77,285120.
99,123120.
121,285120.
143,123120.
165,533520.
313,21.261073050669
346,19.8252330467934
379,18.3945948548576
412,19.8144554465155
445,18.3794509599642
478,19.82749754794
596,0.0
639,0.0
2,1, 7,21, 0, 2, 0.00,60.00,SummerDesignDay
6,22.0975
7,85.158529607464
8,5.2
9,230.
10,0.0
11,0.0
12,0.0
13,0.0
14,0.0
15,0.0
77,285120.
99,123120.
121,285120.
143,123120.
165,533520.
313,20.8411893036849
346,19.6731057011726
379,18.248766555411
412,19.6642986525889
445,18.2010360189426
478,19.7119208271263
596,0.0
639,0.0
2,1, 7,21, 0, 3, 0.00,60.00,SummerDesignDay
6,21.743125
7,87.0194047757844
8,5.2
9,230.
10,0.0
11,0.0
12,0.0
13,0.0
14,0.0
15,0.0
77,285120.
99,123120.
121,285120.
143,123120.
165,533520.
313,20.5048564106621
346,19.5583695818538
379,18.1397401664598
412,19.5504591511876
445,18.0753489139756
478,19.6252229743286
596,0.0
639,0.0
2,1, 7,21, 0, 4, 0.00,60.00,SummerDesignDay
6,21.428125
7,88.7130414571123
8,5.2
9,230.
10,0.0
11,0.0
12,0.0
13,0.0
14,0.0
15,0.0
77,285120.
99,123120.
121,285120.
143,123120.
165,533520.
313,20.2366573904191
346,19.4694466858255
379,18.0559504679198
412,19.4619958168345
445,17.9832644208901
478,19.5593254029354
596,0.0
639,0.0
2,1, 7,21, 0, 5, 0.00,60.00,SummerDesignDay
6,21.17875
7,90.0793118386205
8,5.2
9,230.
10,9.22233433823099
11,0.0
12,0.0
13,0.0
14,0.0
15,0.0
77,285120.
99,123120.
121,285120.
143,123120.
165,533520.
313,20.025666840753
346,19.4008399098863
379,18.0056773540886
412,19.410043296365
445,17.9157639129492
478,19.5089400021032
596,0.0
639,0.0
2,1, 7,21, 0, 6, 0.00,60.00,SummerDesignDay
6,21.23125
7,89.7895467085526
8,5.2
9,230.
10,314.874849912284
11,0.0
12,0.0
13,0.0
14,0.0
15,0.0
77,285120.
99,123120.
121,285120.
143,123120.
165,533520.
313,20.0337208399615
346,19.4436340536949
379,18.9180535548978
412,20.3020137779504
445,18.003240333624
478,19.4978247235146
596,0.0
639,0.0
2,1, 7,21, 0, 7, 0.00,60.00,SummerDesignDay
6,21.769375
7,86.8862192738624
8,5.2
9,230.
10,598.021901431636
11,0.0
12,0.0
13,0.0
14,0.0
15,0.0
77,285120.
99,123120.
121,285120.
143,123120.
165,533520.
313,20.4608644247856
346,19.6759617094583
379,20.9889501697357
412,21.7729930182134
445,18.327756145063
478,19.6062150901152
596,0.0
639,0.0
2,1, 7,21, 0, 8, 0.00,60.00,SummerDesignDay
6,23.160625
7,79.8749545490508
8,5.2
9,230.
10,729.10276244503
11,0.0
12,0.0
13,0.0
14,0.0
15,0.0
77,285120.
99,123120.
121,285120.
143,123120.
165,533520.
313,21.0714096249557
346,20.0120320852336
379,22.9348799718356
412,22.4839868574562
445,18.7262338842288
478,19.7736636465953
596,0.0
639,0.0
2,1, 7,21, 0, 9, 0.00,60.00,SummerDesignDay
6,25.076875
7,71.2051392787146
8,5.2
9,230.
10,797.964006564965
11,11.
12,5.
13,11.
14,5.
15,20.
77,5132160.
99,2216160.
121,5132160.
143,2216160.
165,9603360.
313,22.3196163969547
346,22.4900574168876
379,23.998926215273
412,23.9163873143659
445,21.2340473599946
478,22.6047376650521
596,0.0
639,0.0
2,1, 7,21, 0,10, 0.00,60.00,SummerDesignDay
6,26.940625
7,63.7626759566035
8,5.2
9,230.
10,836.571534039555
11,11.
12,5.
13,11.
14,5.
15,20.
77,5417280.
99,2339280.
121,5417280.
143,2339280.
165,10136880.
313,23.6835965303302
346,23.9514120690088
379,24.0031097119493
412,24.0021918515545
445,23.0047562191758
478,23.9722538351836
596,0.0
639,0.0
2,1, 7,21, 0,11, 0.00,60.00,SummerDesignDay
6,28.594375
7,57.8879724729406
8,5.2
9,230.
10,857.525260848616
11,11.
12,5.
13,11.
14,5.
15,20.
77,5702400.
99,2462400.
121,5702400.
143,2462400.
165,10670400.
313,24.5451330510878
346,24.0040149666212
379,24.0040440833439
412,24.0038697959554
445,23.8662914264759
478,24.0038812677599
596,0.0
639,0.0
2,1, 7,21, 0,12, 0.00,60.00,SummerDesignDay
6,29.84125
7,53.85543044468
8,5.2
9,230.
10,866.216138505671
11,8.8
12,4.
13,8.8
14,4.
15,16.
77,5417280.
99,2339280.
121,5417280.
143,2339280.
165,10136880.
313,25.1729550175841
346,24.0035964354593
379,24.0034901884616
412,24.0035031126746
445,24.004173242645
478,24.0039093295651
596,0.0
639,0.0
2,1, 7,21, 0,13, 0.00,60.00,SummerDesignDay
6,30.76
7,51.0916862772923
8,5.2
9,230.
10,864.601860795804
11,4.4
12,2.
13,4.4
14,2.
15,8.
77,4561920.
99,1969920.
121,4561920.
143,1969920.
165,8536320.
313,25.7613160531201
346,24.0024315808972
379,24.0023147119748
412,24.0024002589444
445,23.8442705780996
478,24.0029687846133
596,0.0
639,0.0
2,1, 7,21, 0,14, 0.00,60.00,SummerDesignDay
6,31.403125
7,49.2514375318169
8,5.2
9,230.
10,852.330750348059
11,8.8
12,4.
13,8.8
14,4.
15,16.
77,5132160.
99,2216160.
121,5132160.
143,2216160.
165,9603360.
313,26.1022566081614
346,24.0023310068073
379,24.0029609517826
412,24.0023274376327
445,23.9929275378811
478,24.0030750475868
596,0.0
639,0.0
2,1, 7,21, 0,15, 0.00,60.00,SummerDesignDay
6,31.6
7,48.702179534817
8,5.2
9,230.
10,826.550142732353
11,11.
12,5.
13,11.
14,5.
15,20.
77,5702400.
99,2462400.
121,5702400.
143,2462400.
165,10670400.
313,26.2936739879681
346,24.0034160543456
379,24.0045264943527
412,24.003423280472
445,24.0046328806498
478,24.0043349459658
596,0.0
639,0.0
2,1, 7,21, 0,16, 0.00,60.00,SummerDesignDay
6,31.20625
7,49.8066089662839
8,5.2
9,230.
10,780.187499235886
11,11.
12,5.
13,11.
14,5.
15,20.
77,5702400.
99,2462400.
121,5702400.
143,2462400.
165,10670400.
313,26.4072401386676
346,24.0037588643634
379,24.0049186790897
412,24.0037438982652
445,24.0045696070761
478,24.004750836042
596,0.0
639,0.0
2,1, 7,21, 0,17, 0.00,60.00,SummerDesignDay
6,30.445
7,52.0197469732492
8,5.2
9,230.
10,696.523849127388
11,11.
12,5.
13,11.
14,5.
15,20.
77,5702400.
99,2462400.
121,5702400.
143,2462400.
165,10670400.
313,26.4465900593747
346,24.0036397959158
379,24.0048300799592
412,24.0036438742127
445,24.0043845820861
478,24.004647878936
596,0.0
639,0.0
2,1, 7,21, 0,18, 0.00,60.00,SummerDesignDay
6,29.47375
7,55.0066892508087
8,5.2
9,230.
10,531.102260781743
11,11.
12,5.
13,11.
14,5.
15,20.
77,5702400.
99,2462400.
121,5702400.
143,2462400.
165,10670400.
313,26.343315746968
346,24.003610105171
379,23.9818909632544
412,24.0036934786956
445,24.0042080985316
478,24.0048437534171
596,0.0
639,0.0
2,1, 7,21, 0,19, 0.00,60.00,SummerDesignDay
6,28.095625
7,59.5908163336924
8,5.2
9,230.
10,180.817409462872
11,5.5
12,2.5
13,5.5
14,2.5
15,10.
77,3421440.
99,1477440.
121,3421440.
143,1477440.
165,6402240.
313,26.316446814996
346,23.9233832767395
379,22.552317791225
412,23.8420428447636
445,24.0020623530156
478,23.942071438299
596,0.0
639,0.0
2,1, 7,21, 0,20, 0.00,60.00,SummerDesignDay
6,26.783125
7,64.3376058497763
8,5.2
9,230.
10,1.056267041559758E-013
11,1.1
12,0.5
13,1.1
14,0.5
15,2.
77,1140480.
99,492480.
121,1140480.
143,492480.
165,2134080.
313,25.5020409451537
346,22.590792389629
379,21.008456112018
412,22.4893375388126
445,22.4999446288694
478,22.5417344904458
596,0.0
639,0.0
2,1, 7,21, 0,21, 0.00,60.00,SummerDesignDay
6,25.759375
7,68.3418995886828
8,5.2
9,230.
10,0.0
11,1.1
12,0.5
13,1.1
14,0.5
15,2.
77,1140480.
99,492480.
121,1140480.
143,492480.
165,2134080.
313,24.3217735567173
346,21.4400171388122
379,20.0496394137353
412,21.385564324323
445,20.8491942895796
478,21.3111069501941
596,0.0
639,0.0
2,1, 7,21, 0,22, 0.00,60.00,SummerDesignDay
6,24.814375
7,72.2937778412944
8,5.2
9,230.
10,0.0
11,0.0
12,0.0
13,0.0
14,0.0
15,0.0
77,285120.
99,123120.
121,285120.
143,123120.
165,533520.
313,23.282679705996
346,20.7129197104987
379,19.2904569091446
412,20.6793628273117
445,19.6841205351612
478,20.572453963082
596,0.0
639,0.0
2,1, 7,21, 0,23, 0.00,60.00,SummerDesignDay
6,24.000625
7,75.8998312951961
8,5.2
9,230.
10,0.0
11,0.0
12,0.0
13,0.0
14,0.0
15,0.0
77,285120.
99,123120.
121,285120.
143,123120.
165,533520.
313,22.4436361139212
346,20.3002388127359
379,18.8653450982025
412,20.2789164380127
445,19.0329248505942
478,20.2089604250046
596,0.0
639,0.0
2,1, 7,21, 0,24, 0.00,60.00,SummerDesignDay
6,23.265625
7,79.3359367866328
8,5.2
9,230.
10,0.0
11,0.0
12,0.0
13,0.0
14,0.0
15,0.0
77,285120.
99,123120.
121,285120.
143,123120.
165,533520.
313,21.7863008386928
346,20.0275896198664
379,18.5917733690573
412,20.0130166755514
445,18.6395566953277
478,19.9852774388742
596,0.0
639,0.0
1,Chicago Ohare Intl Ap IL USA TMY3 WMO#=725300,  41.98, -87.92,  -6.00, 201.00
2,1, 1,15, 0, 1, 0.00,60.00,Sunday         
6,-10.875
7,87.375
8,2.1
9,207.5
10,0.0
11,0.0
12,0.0
13,0.0
14,0.0
15,0.0
77,285120.
99,123120.
121,285120.
143,123120.
165,533520.
313,16.0353476101381
346,17.2658101128533
379,16.7012747718023
412,17.2823451305209
445,16.7247870811816
478,19.0780851042302
596,0.0
639,0.0
2,1, 1,15, 0, 2, 0.00,60.00,Sunday         
6,-14.4
7,89.5
8,2.1
9,230.
10,0.0
11,0.0
12,0.0
13,0.0
14,0.0
15,0.0
77,285120.
99,123120.
121,285120.
143,123120.
165,533520.
313,15.6537981558457
346,16.8676381066224
379,16.2509432471167
412,16.9008644174134
445,16.277682321302
478,18.9268617114167
596,0.0
639,0.0
2,1, 1,15, 0, 3, 0.00,60.00,Sunday         
6,-14.4
7,91.
8,2.4125
9,230.
10,0.0
11,0.0
12,0.0
13,0.0
14,0.0
15,0.0
77,285120.
99,123120.
121,285120.
143,123120.
165,533520.
313,15.1792838292607
346,16.5985215551759
379,15.8982135179847
412,16.6364253567719
445,15.9242243323861
478,18.7600356235538
596,0.0
639,0.0
2,1, 1,15, 0, 4, 0.00,60.00,Sunday         
6,-14.0875
7,91.
8,0.975
9,86.25
10,0.0
11,0.0
12,0.0
13,0.0
14,0.0
15,0.0
77,285120.
99,123120.
121,285120.
143,123120.
165,533520.
313,14.7269612870629
346,16.4844935400355
379,15.7672202513045
412,16.5214365488862
445,15.7947612736082
478,18.6886435182739
596,0.0
639,0.0
2,1, 1,15, 0, 5, 0.00,60.00,Sunday         
6,-13.2125
7,91.625
8,1.3125
9,125.
10,0.0
11,0.0
12,0.0
13,0.0
14,0.0
15,0.0
77,285120.
99,123120.
121,285120.
143,123120.
165,533520.
313,14.4074400632061
346,16.4558861464407
379,15.7524540283138
412,16.4896604773672
445,15.7818963916809
478,18.652022563417
596,0.0
639,0.0
2,1, 1,15, 0, 6, 0.00,60.00,Sunday         
6,-12.425
7,84.5
8,2.1
9,181.25
10,0.0
11,0.0
12,0.0
13,0.0
14,0.0
15,0.0
77,285120.
99,123120.
121,285120.
143,123120.
165,533520.
313,14.1670105168879
346,16.3887544997942
379,15.6958269119819
412,16.4217095312761
445,15.7259393401118
478,18.5575268337967
596,0.0
639,0.0
2,1, 1,15, 0, 7, 0.00,60.00,Sunday         
6,-10.825
7,80.
8,2.725
9,170.
10,0.0
11,0.0
12,0.0
13,0.0
14,0.0
15,0.0
77,285120.
99,123120.
121,285120.
143,123120.
165,533520.
313,14.0175935310009
346,16.3842517598358
379,15.6978860906183
412,16.4148729010798
445,15.7274643949941
478,18.4988987546995
596,0.0
639,0.0
2,1, 1,15, 0, 8, 0.00,60.00,Sunday         
6,-8.9375
7,80.625
8,3.4125
9,195.
10,47.25
11,0.0
12,0.0
13,0.0
14,0.0
15,0.0
77,285120.
99,123120.
121,285120.
143,123120.
165,533520.
313,15.3065645231812
346,20.7941472326847
379,21.7008180561062
412,20.796411546778
445,21.7539516999362
478,21.4326592268149
596,4066.56739536278
639,3932.11103106692
2,1, 1,15, 0, 9, 0.00,60.00,Sunday         
6,-6.925
7,81.
8,4.225
9,210.
10,214.6875
11,0.0
12,0.0
13,0.0
14,0.0
15,0.0
77,285120.
99,123120.
121,285120.
143,123120.
165,533520.
313,16.5445360122637
346,22.1424678663243
379,22.0002064304903
412,22.1399986546364
445,22.0001995977435
478,22.0008901707267
596,3101.88292627252
639,2993.70591291188
2,1, 1,15, 0,10, 0.00,60.00,Sunday         
6,-5.0375
7,73.5
8,5.2875
9,210.
10,534.375
11,0.0
12,0.0
13,0.0
14,0.0
15,0.0
77,285120.
99,123120.
121,285120.
143,123120.
165,533520.
313,17.3180524671754
346,22.1118245784208
379,22.0353181142907
412,22.1164854877956
445,22.0001741013246
478,22.0007106161205
596,2377.7948934356
639,2452.01679026392
2,1, 1,15, 0,11, 0.00,60.00,Sunday         
6,-3.4
7,65.25
8,6.6375
9,210.
10,702.9375
11,0.0
12,0.0
13,0.0
14,0.0
15,0.0
77,285120.
99,123120.
121,285120.
143,123120.
165,533520.
313,18.121487313835
346,22.0316974179466
379,22.9054309240247
412,22.0442473159306
445,22.0000471249347
478,22.00023102919
596,1552.92688400172
639,2021.01374052081
2,1, 1,15, 0,12, 0.00,60.00,Sunday         
6,-1.7375
7,61.75
8,5.95
9,222.5
10,720.1875
11,0.0
12,0.0
13,0.0
14,0.0
15,0.0
77,285120.
99,123120.
121,285120.
143,123120.
165,533520.
313,18.8942945740181
346,22.0381179092791
379,23.3635043376762
412,22.0808183046966
445,22.0000941730422
478,22.0003730296449
596,758.675172639832
639,1707.59926074062
2,1, 1,15, 0,13, 0.00,60.00,Sunday         
6,-3.750000000000003E-002
7,59.75
8,7.075
9,223.75
10,673.625
11,0.0
12,0.0
13,0.0
14,0.0
15,0.0
77,285120.
99,123120.
121,285120.
143,123120.
165,533520.
313,19.5857566353031
346,22.023300736325
379,22.8490508745015
412,22.0677402505582
445,22.0000616198652
478,22.0002397325687
596,145.011299985904
639,1436.68293606675
2,1, 1,15, 0,14, 0.00,60.00,Sunday         
6,1.2875
7,57.75
8,7.575
9,220.
10,561.125
11,0.0
12,0.0
13,0.0
14,0.0
15,0.0
77,285120.
99,123120.
121,285120.
143,123120.
165,533520.
313,19.8537722093667
346,22.0073942172872
379,21.07635638155
412,20.214925527321
445,19.7493040644237
478,20.8609302696671
596,0.0
639,0.0
2,1, 1,15, 0,15, 0.00,60.00,Sunday         
6,2.3875
7,55.75
8,6.575
9,213.75
10,273.125
11,0.0
12,0.0
13,0.0
14,0.0
15,0.0
77,285120.
99,123120.
121,285120.
143,123120.
165,533520.
313,19.6726821952984
346,21.5068165896569
379,19.5335712807728
412,19.1902048788806
445,18.7457087452519
478,20.0503066638046
596,0.0
639,0.0
2,1, 1,15, 0,16, 0.00,60.00,Sunday         
6,2.8
7,55.
8,5.575
9,216.25
10,205.75
11,0.0
12,0.0
13,0.0
14,0.0
15,0.0
77,285120.
99,123120.
121,285120.
143,123120.
165,533520.
313,19.4378746658998
346,21.0870764361785
379,18.786924254006
412,18.8728360514123
445,18.6512062299002
478,19.8928255583574
596,0.0
639,0.0
2,1, 1,15, 0,17, 0.00,60.00,Sunday         
6,1.425
7,60.625
8,3.8875
9,220.
10,26.8125
11,0.0
12,0.0
13,0.0
14,0.0
15,0.0
77,285120.
99,123120.
121,285120.
143,123120.
165,533520.
313,19.0380804437712
346,20.1471331045765
379,18.3336432982253
412,18.6026552133904
445,18.4568450916191
478,19.8272142217223
596,0.0
639,0.0
2,1, 1,15, 0,18, 0.00,60.00,Sunday         
6,0.225
7,65.875
8,2.1
9,238.75
10,0.0
11,0.0
12,0.0
13,0.0
14,0.0
15,0.0
77,285120.
99,123120.
121,285120.
143,123120.
165,533520.
313,18.62221477046
346,19.5022878410662
379,18.6450143117543
412,18.6856160645356
445,18.7363115975884
478,20.0044259166643
596,0.0
639,0.0
2,1, 1,15, 0,19, 0.00,60.00,Sunday         
6,-1.75
7,73.875
8,1.5
9,206.25
10,0.0
11,0.0
12,0.0
13,0.0
14,0.0
15,0.0
77,285120.
99,123120.
121,285120.
143,123120.
165,533520.
313,18.1795430506042
346,18.9423208690319
379,18.3517849341687
412,18.4884370908331
445,18.4169176441494
478,19.8933739807508
596,0.0
639,0.0
2,1, 1,15, 0,20, 0.00,60.00,Sunday         
6,-2.425
7,76.125
8,2.1875
9,180.
10,0.0
11,0.0
12,0.0
13,0.0
14,0.0
15,0.0
77,285120.
99,123120.
121,285120.
143,123120.
165,533520.
313,17.7180819669258
346,18.4968262879066
379,18.018998507451
412,18.2512033936346
445,18.0670060366832
478,19.729983354975
596,0.0
639,0.0
2,1, 1,15, 0,21, 0.00,60.00,Sunday         
6,-2.2
7,75.
8,1.9125
9,180.
10,0.0
11,0.0
12,0.0
13,0.0
14,0.0
15,0.0
77,285120.
99,123120.
121,285120.
143,123120.
165,533520.
313,17.286849784597
346,18.2108738305109
379,17.76102268762
412,18.0810911203275
445,17.7972100621776
478,19.578872473534
596,0.0
639,0.0
2,1, 1,15, 0,22, 0.00,60.00,Sunday         
6,-3.95
7,85.625
8,1.5
9,173.75
10,0.0
11,0.0
12,0.0
13,0.0
14,0.0
15,0.0
77,285120.
99,123120.
121,285120.
143,123120.
165,533520.
313,16.9238612842504
346,17.966019300601
379,17.5043788518002
412,17.9029054127059
445,17.5336413014665
478,19.4551231011368
596,0.0
639,0.0
2,1, 1,15, 0,23, 0.00,60.00,Sunday         
6,-3.9375
7,83.25
8,1.875
9,176.25
10,0.0
11,0.0
12,0.0
13,0.0
14,0.0
15,0.0
77,285120.
99,123120.
121,285120.
143,123120.
165,533520.
313,16.5962323742529
346,17.7509463929739
379,17.263081766851
412,17.7253083584054
445,17.288378755358
478,19.3241879273099
596,0.0
639,0.0
2,1, 1,15, 0,24, 0.00,60.00,Sunday         
6,-4.3625
7,84.25
8,2.1
9,173.75
10,0.0
11,0.0
12,0.0
13,0.0
14,0.0
15,0.0
77,285120.
99,123120.
121,285120.
143,123120.
165,533520.
313,16.309831329726
346,17.5952051078589
379,17.0699628803637
412,17.5904212702939
445,17.0920125491052
478,19.2051839120709
596,0.0
639,0.0
2,2, 1,16, 0, 1, 0.00,60.00,Monday         
6,-5.375
7,88.
8,2.1
9,145.
10,0.0
11,0.0
12,0.0
13,0.0
14,0.0
15,0.0
77,285120.
99,123120.
121,285120.
143,123120.
165,533520.
313,16.0332089879919
346,17.308838300562
379,16.7297601250875
412,17.3150854071378
445,16.7515086368148
478,18.9455311372697
596,0.0
639,0.0
2,2, 1,16, 0, 2, 0.00,60.00,Monday         
6,-6.2875
7,90.5
8,2.4125
9,155.
10,0.0
11,0.0
12,0.0
13,0.0
14,0.0
15,0.0
77,285120.
99,123120.
121,285120.
143,123120.
165,533520.
313,15.7472306307992
346,17.0909623047691
379,16.4651975882827
412,17.1041593704559
445,16.4865747921253
478,18.7690774627033
596,0.0
639,0.0
2,2, 1,16, 0, 3, 0.00,60.00,Monday         
6,-7.0125
7,92.
8,2.2875
9,163.75
10,0.0
11,0.0
12,0.0
13,0.0
14,0.0
15,0.0
77,285120.
99,123120.
121,285120.
143,123120.
165,533520.
313,15.477694290055
346,16.91492352221
379,16.2437385582744
412,16.9327515346993
445,16.2645527049535
478,18.6423506604668
596,0.0
639,0.0
2,2, 1,16, 0, 4, 0.00,60.00,Monday         
6,-6.2
7,89.5
8,2.4125
9,166.25
10,0.0
11,0.0
12,0.0
13,0.0
14,0.0
15,0.0
77,285120.
99,123120.
121,285120.
143,123120.
165,533520.
313,15.2329027752848
346,16.8087336165428
379,16.0937561430398
412,16.827186782178
445,16.1130014165969
478,18.5422664068896
596,0.0
639,0.0
2,2, 1,16, 0, 5, 0.00,60.00,Monday         
6,-5.225
7,86.125
8,2.6
9,151.25
10,0.0
11,0.0
12,0.0
13,0.0
14,0.0
15,0.0
77,285120.
99,123120.
121,285120.
143,123120.
165,533520.
313,15.0399123179094
346,16.7571473910871
379,16.0067908430367
412,16.7742532040108
445,16.0237713637671
478,18.4578743573879
596,0.0
639,0.0
2,2, 1,16, 0, 6, 0.00,60.00,Monday         
6,-5.
7,86.875
8,2.6
9,158.75
10,0.0
11,0.0
12,0.0
13,0.0
14,0.0
15,0.0
77,285120.
99,123120.
121,285120.
143,123120.
165,533520.
313,14.9191705642957
346,16.7508583739223
379,16.0164325372794
412,16.7667560968191
445,16.0342991437565
478,18.426093388294
596,0.0
639,0.0
2,2, 1,16, 0, 7, 0.00,60.00,Monday         
6,-4.625
7,86.125
8,2.6
9,163.75
10,0.0
11,0.0
12,0.0
13,0.0
14,0.0
15,0.0
77,285120.
99,123120.
121,285120.
143,123120.
165,533520.
313,14.864757135212
346,16.7690790162617
379,16.0590414313462
412,16.7849636874707
445,16.0778847109049
478,18.4199885222406
596,0.0
639,0.0
2,2, 1,16, 0, 8, 0.00,60.00,Monday         
6,-4.0875
7,85.
8,2.9125
9,160.
10,35.0625
11,0.0
12,0.0
13,0.0
14,0.0
15,0.0
77,285120.
99,123120.
121,285120.
143,123120.
165,533520.
313,16.1531850531251
346,21.0770691681608
379,21.779313054222
412,21.0683658618193
445,21.8015727889602
478,21.4089050300763
596,4035.21498954767
639,3904.95419084754
2,2, 1,16, 0, 9, 0.00,60.00,Monday         
6,-2.15
7,80.625
8,3.725
9,172.5
10,129.4375
11,11.
12,5.
13,11.
14,5.
15,20.
77,5132160.
99,2216160.
121,5132160.
143,2216160.
165,9603360.
313,17.362765642021
346,22.0541514540852
379,22.0001462152228
412,22.0488322745867
445,22.0004521333072
478,22.4454604594861
596,1119.6209335097
639,983.081323404736
2,2, 1,16, 0,10, 0.00,60.00,Monday         
6,0.275
7,74.875
8,4.1
9,173.75
10,156.8125
11,11.
12,5.
13,11.
14,5.
15,20.
77,5417280.
99,2339280.
121,5417280.
143,2339280.
165,10136880.
313,18.2887647048627
346,22.0131298458127
379,22.9565465884137
412,22.0558531467911
445,22.0003013930751
478,23.7080352557689
596,87.2586387726104
639,31.4150497439744
2,2, 1,16, 0,11, 0.00,60.00,Monday         
6,2.1625
7,69.25
8,3.475
9,170.
10,33.4375
11,11.
12,5.
13,11.
14,5.
15,20.
77,5702400.
99,2462400.
121,5702400.
143,2462400.
165,10670400.
313,19.2233640162205
346,22.2810318628635
379,23.1384349818632
412,22.4690547679901
445,22.0358295191648
478,24.0039465574531
596,0.0
639,0.0
2,2, 1,16, 0,12, 0.00,60.00,Monday         
6,3.8
7,63.875
8,3.4125
9,182.5
10,194.0625
11,8.8
12,4.
13,8.8
14,4.
15,16.
77,5417280.
99,2339280.
121,5417280.
143,2339280.
165,10136880.