Program Version,EnergyPlus-Windows-64 8.0.0.008, YMD=2015.08.31 15:10
1,5,Environment Title[],Latitude[deg],Longitude[deg],Time Zone[],Elevation[m]
2,6,Day of Simulation[],Month[],Day of Month[],DST Indicator[1=yes 0=no],Hour[],StartMinute[],EndMinute[],DayType
3,3,Cumulative Day of Simulation[],Month[],Day of Month[],DST Indicator[1=yes 0=no],DayType  ! When Daily Report Variables Requested
4,2,Cumulative Days of Simulation[],Month[]  ! When Monthly Report Variables Requested
5,1,Cumulative Days of Simulation[] ! When Run Period Report Variables Requested
6,1,Environment,Site Outdoor Air Drybulb Temperature [C] !Hourly
7,1,Environment,Site Outdoor Air Relative Humidity [%] !Hourly
8,1,Environment,Site Wind Speed [m/s] !Hourly
9,1,Environment,Site Wind Direction [deg] !Hourly
10,1,Environment,Site Direct Solar Radiation Rate per Area [W/m2] !Hourly
11,1,PLENUM-1,Zone Total Internal Total Heating Rate [W] !Hourly
12,1,SPACE1-1,Zone Total Internal Total Heating Rate [W] !Hourly
13,1,SPACE2-1,Zone Total Internal Total Heating Rate [W] !Hourly
14,1,SPACE3-1,Zone Total Internal Total Heating Rate [W] !Hourly
15,1,SPACE4-1,Zone Total Internal Total Heating Rate [W] !Hourly
16,1,SPACE5-1,Zone Total Internal Total Heating Rate [W] !Hourly
17,1,SPACE1-1,Zone People Occupant Count [] !Hourly
18,1,SPACE2-1,Zone People Occupant Count [] !Hourly
19,1,SPACE3-1,Zone People Occupant Count [] !Hourly
20,1,SPACE4-1,Zone People Occupant Count [] !Hourly
21,1,SPACE5-1,Zone People Occupant Count [] !Hourly
83,1,SPACE1-1,Zone Lights Total Heating Energy [J] !Hourly
105,1,SPACE2-1,Zone Lights Total Heating Energy [J] !Hourly
127,1,SPACE3-1,Zone Lights Total Heating Energy [J] !Hourly
149,1,SPACE4-1,Zone Lights Total Heating Energy [J] !Hourly
171,1,SPACE5-1,Zone Lights Total Heating Energy [J] !Hourly
247,1,FRONT-1,Surface Outside Face Incident Solar Radiation Rate per Area [W/m2] !Hourly
248,1,PLENUM-1,Zone Air Heat Balance Air Energy Storage Rate [W] !Hourly
249,1,SPACE1-1,Zone Air Heat Balance Air Energy Storage Rate [W] !Hourly
250,1,SPACE2-1,Zone Air Heat Balance Air Energy Storage Rate [W] !Hourly
251,1,SPACE3-1,Zone Air Heat Balance Air Energy Storage Rate [W] !Hourly
252,1,SPACE4-1,Zone Air Heat Balance Air Energy Storage Rate [W] !Hourly
253,1,SPACE5-1,Zone Air Heat Balance Air Energy Storage Rate [W] !Hourly
326,1,PLENUM-1,Zone Air System Sensible Heating Rate [W] !Hourly
327,1,PLENUM-1,Zone Air Temperature [C] !Hourly
360,1,SPACE1-1,Zone Air System Sensible Heating Rate [W] !Hourly
361,1,SPACE1-1,Zone Air Temperature [C] !Hourly
394,1,SPACE2-1,Zone Air System Sensible Heating Rate [W] !Hourly
395,1,SPACE2-1,Zone Air Temperature [C] !Hourly
428,1,SPACE3-1,Zone Air System Sensible Heating Rate [W] !Hourly
429,1,SPACE3-1,Zone Air Temperature [C] !Hourly
462,1,SPACE4-1,Zone Air System Sensible Heating Rate [W] !Hourly
463,1,SPACE4-1,Zone Air Temperature [C] !Hourly
496,1,SPACE5-1,Zone Air System Sensible Heating Rate [W] !Hourly
497,1,SPACE5-1,Zone Air Temperature [C] !Hourly
615,1,SPACE1-1 BASEBOARD,Baseboard Total Heating Rate [W] !Hourly
658,1,SPACE3-1 BASEBOARD,Baseboard Total Heating Rate [W] !Hourly
End of Data Dictionary
1,CHICAGO_IL_USA ANNUAL HEATING 99% DESIGN CONDITIONS DB,  41.98, -87.92,  -6.00, 201.00
2,1, 1,21, 0, 1, 0.00,60.00,WinterDesignDay
6,-16.6
7,100.
8,4.9
9,270.
10,0.0
11,0.0
12,290.4
13,125.4
14,290.4
15,125.4
16,543.4
17,0.0
18,0.0
19,0.0
20,0.0
21,0.0
83,285120.
105,123120.
127,285120.
149,123120.
171,533520.
247,0.0
248,-2.410353229755948E-002
249,-1.864597445007115E-002
250,6.076358665518993E-006
251,-0.188190778767143
252,6.030019113378725E-006
253,2.531735861958007E-005
326,2770.37644700104
327,17.4852629048904
360,2805.80783493825
361,22.1512433322555
394,1194.2155043834
395,22.0002193509266
428,2708.99130961639
429,22.1500384718304
462,1183.88485594322
463,22.0002193479182
496,1687.27039906944
497,22.0009537393148
615,3332.89945159595
658,3212.67581946615
2,1, 1,21, 0, 2, 0.00,60.00,WinterDesignDay
6,-16.6
7,100.
8,4.9
9,270.
10,0.0
11,0.0
12,290.4
13,125.4
14,290.4
15,125.4
16,543.4
17,0.0
18,0.0
19,0.0
20,0.0
21,0.0
83,285120.
105,123120.
127,285120.
149,123120.
171,533520.
247,0.0
248,-1.539836720214750E-002
249,-1.362046645336176E-002
250,-7.677558510179526E-008
251,5.481747647613761E-002
252,-8.761588954818294E-008
253,5.792965128875624E-007
326,2770.47852324936
327,17.4849936418581
360,2805.794022299
361,22.1510733690281
394,1194.22717832581
395,22.0002192868363
428,2709.84559169087
429,22.1504053887918
462,1183.89653704736
463,22.0002192843546
496,1687.33774116658
497,22.000953697447
615,3332.89993838901
658,3213.60652024021
2,1, 1,21, 0, 3, 0.00,60.00,WinterDesignDay
6,-16.6
7,100.
8,4.9
9,270.
10,0.0
11,0.0
12,290.4
13,125.4
14,290.4
15,125.4
16,543.4
17,0.0
18,0.0
19,0.0
20,0.0
21,0.0
83,285120.
105,123120.
127,285120.
149,123120.
171,533520.
247,0.0
248,-1.187192484652150E-002
249,-7.793173434434445E-003
250,8.399639576097452E-009
251,2.584218272824013E-003
252,8.389483963102575E-009
253,7.212022684755643E-008
326,2770.57482517945
327,17.4848556693082
360,2805.78956875672
361,22.1509680705669
394,1194.23201058354
395,22.0002192871173
428,2709.81767721983
429,22.1504919498282
462,1183.90137353617
463,22.0002192846049
496,1687.36253941359
497,22.0009536980836
615,3332.90028628066
658,3213.60561976599
2,1, 1,21, 0, 4, 0.00,60.00,WinterDesignDay
6,-16.6
7,100.
8,4.9
9,270.
10,0.0
11,0.0
12,290.4
13,125.4
14,290.4
15,125.4
16,543.4
17,0.0
18,0.0
19,0.0
20,0.0
21,0.0
83,285120.
105,123120.
127,285120.
149,123120.
171,533520.
247,0.0
248,-8.444939180647589E-003
249,-5.181402713289476E-003
250,6.418872242716773E-009
251,-1.442872914078852E-003
252,6.431504949078806E-009
253,5.999199742671481E-008
326,2770.62870766522
327,17.484752628995
360,2805.78460560322
361,22.1509002498713
394,1194.2355755144
395,22.0002192874281
428,2709.80536419588
429,22.1504861034522
462,1183.90494091048
463,22.0002192849162
496,1687.38265488974
497,22.0009536985324
615,3332.90048591076
658,3213.60548518289
2,1, 1,21, 0, 5, 0.00,60.00,WinterDesignDay
6,-16.6
7,100.
8,4.9
9,270.
10,0.0
11,0.0
12,290.4
13,125.4
14,290.4
15,125.4
16,543.4
17,0.0
18,0.0
19,0.0
20,0.0
21,0.0
83,285120.
105,123120.
127,285120.
149,123120.
171,533520.
247,0.0
248,-5.961529738761848E-003
249,-3.483241786957810E-003
250,4.863569438698727E-009
251,-1.780380705602491E-003
252,4.878761702843462E-009
253,4.697147095286864E-008
326,2770.66454798574
327,17.484679671291
360,2805.78072488769
361,22.1508549410978
394,1194.23834220152
395,22.0002192876621
428,2709.79855706278
429,22.1504661148259
462,1183.90770922304
463,22.0002192851507
496,1687.39827801775
497,22.0009536988911
615,3332.90061052093
658,3213.60546599104
2,1, 1,21, 0, 6, 0.00,60.00,WinterDesignDay
6,-16.6
7,100.
8,4.9
9,270.
10,0.0
11,0.0
12,290.4
13,125.4
14,290.4
15,125.4
16,543.4
17,0.0
18,0.0
19,0.0
20,0.0
21,0.0
83,285120.
105,123120.
127,285120.
149,123120.
171,533520.
247,0.0
248,-4.202161549293455E-003
249,-2.367027758266027E-003
250,3.555800627045810E-009
251,-1.510163215871940E-003
252,3.557617138199512E-009
253,3.452673639191012E-008
326,2770.68930310954
327,17.484628229398
360,2805.77782136537
361,22.1508242777065
394,1194.24039042044
395,22.0002192878353
428,2709.79430980918
429,22.1504474862391
462,1183.9097586089
463,22.0002192853242
496,1687.40973447683
497,22.0009536991599
615,3332.90069073057
658,3213.60547739057
2,1, 1,21, 0, 7, 0.00,60.00,WinterDesignDay
6,-16.6
7,100.
8,4.9
9,270.
10,0.0
11,0.0
12,290.4
13,125.4
14,290.4
15,125.4
16,543.4
17,0.0
18,0.0
19,0.0
20,0.0
21,0.0
83,285120.
105,123120.
127,285120.
149,123120.
171,533520.
247,0.0
248,0.386017839974185
249,0.88265407450484
250,3.488857565447885E-004
251,0.851525149785059
252,3.487529957880939E-004
253,8.911814933637881E-003
326,2770.83390870217
327,17.4873436203548
360,2791.20501883112
361,22.1612959330673
394,1194.11856768214
395,22.0002335773627
428,2695.57332993949
429,22.1597444321433
462,1183.78789901724
463,22.0002335408366
496,1686.08333475234
497,22.001015422977
615,3543.45597991807
658,3414.43793941178
2,1, 1,21, 0, 8, 0.00,60.00,WinterDesignDay
6,-16.6
7,100.
8,4.9
9,270.
10,0.0
11,0.0
12,290.4
13,125.4
14,290.4
15,125.4
16,543.4
17,0.0
18,0.0
19,0.0
20,0.0
21,0.0
83,285120.
105,123120.
127,285120.
149,123120.
171,533520.
247,0.0
248,0.173627926218329
249,6.444675100140779E-002
250,2.575194602954600E-006
251,-3.377766761344499E-003
252,2.729559452472400E-006
253,-6.966400207080577E-006
326,2769.73756525846
327,17.4899913060125
360,2783.35360314225
361,22.1605661842035
394,1193.8475292266
395,22.0002342922443
428,2688.07788442711
429,22.1599826619179
462,1183.51679778586
463,22.0002342890163
496,1683.7904449778
497,22.0010151326969
615,3535.51533255376
658,3406.97033815116
2,1, 1,21, 0, 9, 0.00,60.00,WinterDesignDay
6,-16.6
7,100.
8,4.9
9,270.
10,0.0
11,0.0
12,290.4
13,125.4
14,290.4
15,125.4
16,543.4
17,0.0
18,0.0
19,0.0
20,0.0
21,0.0
83,285120.
105,123120.
127,285120.
149,123120.
171,533520.
247,0.0
248,0.124153504348183
249,0.139779152087681
250,-1.625854036548380E-007
251,5.272606905185087E-002
252,-1.533226127973129E-007
253,-2.670934748365545E-006
326,2768.90028789926
327,17.4914914345112
360,2783.11525275148
361,22.1624280074072
394,1193.71476711446
395,22.0002345538032
428,2686.34496261326
429,22.1590235799926
462,1183.38395742135
463,22.0002345511361
496,1682.96692532151
497,22.00101534345
615,3535.5046407617
658,3405.12531902021
2,1, 1,21, 0,10, 0.00,60.00,WinterDesignDay
6,-16.6
7,100.
8,4.9
9,270.
10,0.0
11,0.0
12,290.4
13,125.4
14,290.4
15,125.4
16,543.4
17,0.0
18,0.0
19,0.0
20,0.0
21,0.0
83,285120.
105,123120.
127,285120.
149,123120.
171,533520.
247,0.0
248,9.444413642624894E-002
249,7.540685416612146E-002
250,-1.319237213815590E-007
251,5.027637671060130E-002
252,-1.322047773084869E-007
253,-1.409818230040732E-006
326,2768.44225318994
327,17.4926261524915
360,2782.97913877542
361,22.1634968007822
394,1193.64306127598
395,22.0002345471183
428,2686.26668154528
429,22.1596711784055
462,1183.31220117869
463,22.0002345444611
496,1682.55935685351
497,22.0010153315238
615,3535.49921588736
658,3405.1227291344
2,1, 1,21, 0,11, 0.00,60.00,WinterDesignDay
6,-16.6
7,100.
8,4.9
9,270.
10,0.0
11,0.0
12,290.4
13,125.4
14,290.4
15,125.4
16,543.4
17,0.0
18,0.0
19,0.0
20,0.0
21,0.0
83,285120.
105,123120.
127,285120.
149,123120.
171,533520.
247,0.0
248,5.563361038179709E-002
249,-4.702114161040392E-002
250,-3.468506094407876E-008
251,3.270632272121136E-002
252,-2.747520028420103E-008
253,-1.228103080796687E-006
326,2767.98850541775
327,17.4933942885994
360,2782.09341008643
361,22.1627709489275
394,1193.59987596755
395,22.0002345920464
428,2686.21217786873
429,22.1601208510263
462,1183.26898610702
463,22.0002345893585
496,1682.320206976
497,22.0010153257209
615,3534.5247320385
658,3405.12078311014
2,1, 1,21, 0,12, 0.00,60.00,WinterDesignDay
6,-16.6
7,100.
8,4.9
9,270.
10,0.0
11,0.0
12,290.4
13,125.4
14,290.4
15,125.4
16,543.4
17,0.0
18,0.0
19,0.0
20,0.0
21,0.0
83,285120.
105,123120.
127,285120.
149,123120.
171,533520.
247,0.0
248,4.121868898281417E-002
249,8.685659556616696E-003
250,-4.502195772339252E-008
251,1.979101652618043E-002
252,-4.510047830085397E-008
253,-4.338526771907682E-007
326,2767.71171453087
327,17.4938891647111
360,2782.08832880105
361,22.1628147328632
394,1193.57709882677
395,22.0002345897952
428,2686.17875497701
429,22.1603964646462
462,1183.24619111052
463,22.0002345871209
496,1682.19570158836
497,22.0010153221495
615,3534.5250045318
658,3405.11957388706
2,1, 1,21, 0,13, 0.00,60.00,WinterDesignDay
6,-16.6
7,100.
8,4.9
9,270.
10,0.0
11,0.0
12,290.4
13,125.4
14,290.4
15,125.4
16,543.4
17,0.0
18,0.0
19,0.0
20,0.0
21,0.0
83,285120.
105,123120.
127,285120.
149,123120.
171,533520.
247,0.0
248,2.932959705337525E-002
249,-0.152305502391648
250,3.886218903176777E-006
251,1.187483054867339E-002
252,3.850335888866226E-006
253,1.790243407658666E-006
326,2767.5197981785
327,17.4942133930484
360,2781.19051122895
361,22.1622206030582
394,1193.56353571921
395,22.0002346309366
428,2686.15848037316
429,22.1605637493978
462,1183.23261752135
463,22.0002346279535
496,1682.12093323333
497,22.0010153227671
615,3533.55453840823
658,3405.11885149384
2,1, 1,21, 0,14, 0.00,60.00,WinterDesignDay
6,-16.6
7,100.
8,4.9
9,270.
10,0.0
11,0.0
12,290.4
13,125.4
14,290.4
15,125.4
16,543.4
17,0.0
18,0.0
19,0.0
20,0.0
21,0.0
83,285120.
105,123120.
127,285120.
149,123120.
171,533520.
247,0.0
248,1.532938828311597E-002
249,5.804615233280278E-002
250,-3.398801633045671E-006
251,7.412313962298321E-003
252,-3.349643432392378E-006
253,-2.192556406242768E-006
326,2767.35170351959
327,17.4944311122772
360,2782.13814294202
361,22.1624008872365
394,1193.55487548003
395,22.000234593669
428,2686.14614939184
429,22.1606656634171
462,1183.2239517562
463,22.0002345912134
496,1682.07267504669
497,22.001015317935
615,3534.52421477268
658,3405.11843220409
2,1, 1,21, 0,15, 0.00,60.00,WinterDesignDay
6,-16.6
7,100.
8,4.9
9,270.
10,0.0
11,0.0
12,290.4
13,125.4
14,290.4
15,125.4
16,543.4
17,0.0
18,0.0
19,0.0
20,0.0
21,0.0
83,285120.
105,123120.
127,285120.
149,123120.
171,533520.
247,0.0
248,1.257102765661886E-002
249,0.10070635612883
250,-5.431981272283285E-007
251,4.593261152857504E-003
252,-5.565701637505963E-007
253,-1.156454890539635E-007
326,2767.2883541082
327,17.4945875953805
360,2782.10099820952
361,22.162708478379
394,1193.54869683467
395,22.0002345873288
428,2686.13847543232
429,22.1607290691277
462,1183.21776868868
463,22.0002345847284
496,1682.03783840189
497,22.0010153169821
615,3534.52468143548
658,3405.11816909226
2,1, 1,21, 0,16, 0.00,60.00,WinterDesignDay
6,-16.6
7,100.
8,4.9
9,270.
10,0.0
11,0.0
12,290.4
13,125.4
14,290.4
15,125.4
16,543.4
17,0.0
18,0.0
19,0.0
20,0.0
21,0.0
83,285120.
105,123120.
127,285120.
149,123120.
171,533520.
247,0.0
248,1.195131164574154E-002
249,-0.150445239961959
250,3.901981649020818E-006
251,2.912023918627121E-003
252,3.866119276302991E-006
253,1.930281437306393E-006
326,2767.25974421509
327,17.4947044447812
360,2781.17934682792
361,22.1623101043046
394,1193.5440000744
395,22.0002346289579
428,2686.13363713419
429,22.1607691929035
462,1183.21306897311
463,22.000234625971
496,1682.01107980635
497,22.0010153197847
615,3533.55431797247
658,3405.11802045357
2,1, 1,21, 0,17, 0.00,60.00,WinterDesignDay
6,-16.6
7,100.
8,4.9
9,270.
10,0.0
11,0.0
12,290.4
13,125.4
14,290.4
15,125.4
16,543.4
17,0.0
18,0.0
19,0.0
20,0.0
21,0.0
83,285120.
105,123120.
127,285120.
149,123120.
171,533520.
247,0.0
248,3.007812506222714E-003
249,5.626235657556383E-002
250,-3.386521784454839E-006
251,1.954244258815973E-003
252,-3.337337079996280E-006
253,-2.076673796237780E-006
326,2767.17335110014
327,17.4947709995286
360,2782.12798391322
361,22.1624819251421
394,1193.54122515532
395,22.0002345922915
428,2686.13050797961
429,22.1607951637112
462,1183.21029288989
463,22.0002345898333
496,1681.99618293339
497,22.0010153158491
615,3534.52396483516
658,3405.11792676218
2,1, 1,21, 0,18, 0.00,60.00,WinterDesignDay
6,-16.6
7,100.
8,4.9
9,270.
10,0.0
11,0.0
12,290.4
13,125.4
14,290.4
15,125.4
16,543.4
17,0.0
18,0.0
19,0.0
20,0.0
21,0.0
83,285120.
105,123120.
127,285120.
149,123120.
171,533520.
247,0.0
248,4.006326518423732E-003
249,9.882525485271246E-002
250,-5.344911731784118E-007
251,1.211628785886984E-003
252,-5.478532191699650E-007
253,-3.260569272541066E-008
326,2767.16512570123
327,17.4948219630986
360,2782.09354966035
361,22.1627678078585
394,1193.53930433778
395,22.00023458638
428,2686.1284875615
429,22.1608118441311
462,1183.20837041264
463,22.0002345837777
496,1681.98547111943
497,22.0010153155499
615,3534.52448753123
658,3405.11785594848
2,1, 1,21, 0,19, 0.00,60.00,WinterDesignDay
6,-16.6
7,100.
8,4.9
9,270.
10,0.0
11,0.0
12,290.4
13,125.4
14,290.4
15,125.4
16,543.4
17,0.0
18,0.0
19,0.0
20,0.0
21,0.0
83,285120.
105,123120.
127,285120.
149,123120.
171,533520.
247,0.0
248,-0.403851667773025
249,-0.850024045651625
250,-3.514405393482307E-004
251,-0.937457341653385
252,-3.514053241032503E-004
253,-8.924706780542956E-003
326,2766.95561912531
327,17.4919774020958
360,2796.79159224938
361,22.1527130094492
394,1193.66567765654
395,22.0002198267392
428,2699.47087390101
429,22.1494247648552
462,1183.33478145346
463,22.0002198585452
496,1683.34515564578
497,22.0009527619084
615,3323.13596925343
658,3202.19762235176
2,1, 1,21, 0,20, 0.00,60.00,WinterDesignDay
6,-16.6
7,100.
8,4.9
9,270.
10,0.0
11,0.0
12,290.4
13,125.4
14,290.4
15,125.4
16,543.4
17,0.0
18,0.0
19,0.0
20,0.0
21,0.0
83,285120.
105,123120.
127,285120.
149,123120.
171,533520.
247,0.0
248,-0.180333347252073
249,-1.379580760476815E-002
250,-3.472278650838033E-007
251,-0.106898391411739
252,-4.160379385723225E-007
253,2.291290946146908E-005
326,2768.01192838952
327,17.4892424243747
360,2804.21919131348
361,22.1525515584124
394,1193.94567951262
395,22.0002194475657
428,2706.83095400158
429,22.1493052559506
462,1183.61484909814
463,22.0002194451987
496,1685.69122703975
497,22.0009538359604
615,3330.9434507707
658,3209.92571875186
2,1, 1,21, 0,21, 0.00,60.00,WinterDesignDay
6,-16.6
7,100.
8,4.9
9,270.
10,0.0
11,0.0
12,290.4
13,125.4
14,290.4
15,125.4
16,543.4
17,0.0
18,0.0
19,0.0
20,0.0
21,0.0
83,285120.
105,123120.
127,285120.
149,123120.
171,533520.
247,0.0
248,-0.104571631368585
249,-7.428259889388858E-002
250,6.000351082424467E-007
251,7.076217816952460E-002
252,6.067229847068414E-007
253,2.018903597903783E-007
326,2769.08424917144
327,17.4878463995627
360,2805.87742896128
361,22.1533614235117
394,1194.07605562601
395,22.0002193484476
428,2709.22636923247
429,22.150732221968
462,1183.74530400991
463,22.000219345844
496,1686.49084591072
497,22.0009537193951
615,3332.8924171015
658,3212.67115628907
2,1, 1,21, 0,22, 0.00,60.00,WinterDesignDay
6,-16.6
7,100.
8,4.9
9,270.
10,0.0
11,0.0
12,290.4
13,125.4
14,290.4
15,125.4
16,543.4
17,0.0
18,0.0
19,0.0
20,0.0
21,0.0
83,285120.
105,123120.
127,285120.
149,123120.
171,533520.
247,0.0
248,-8.430804111589041E-002
249,-6.773467249793283E-002
250,9.906395870030349E-008
251,-5.144225931577684E-002
252,9.938043570810485E-008
253,1.040953213669052E-006
326,2769.5618167794
327,17.486864275468
360,2805.85880181248
361,22.1525201446718
394,1194.13493384244
395,22.0002193550464
428,2709.16219595206
429,22.1502785608791
462,1183.8042303456
463,22.0002193525135
496,1686.82069972287
497,22.0009537287221
615,3332.89520033284
658,3212.67275300668
2,1, 1,21, 0,23, 0.00,60.00,WinterDesignDay
6,-16.6
7,100.
8,4.9
9,270.
10,0.0
11,0.0
12,290.4
13,125.4
14,290.4
15,125.4
16,543.4
17,0.0
18,0.0
19,0.0
20,0.0
21,0.0
83,285120.
105,123120.
127,285120.
149,123120.
171,533520.
247,0.0
248,-6.249803337432625E-002
249,-4.690390452900161E-002
250,6.742031295450446E-008
251,-4.098898092729519E-002
252,6.755101561878411E-008
253,7.132183299427258E-007
326,2769.870999355
327,17.4861124279331
360,2805.83814957607
361,22.1519114052992
394,1194.17437084026
395,22.0002193583991
428,2709.1319593776
429,22.149755843135
462,1183.84369456812
463,22.0002193558735
496,1687.04444583781
497,22.000953734403
615,3332.89727083758
658,3212.67429036376
2,1, 1,21, 0,24, 0.00,60.00,WinterDesignDay
6,-16.6
7,100.
8,4.9
9,270.
10,0.0
11,0.0
12,290.4
13,125.4
14,290.4
15,125.4
16,543.4
17,0.0
18,0.0
19,0.0
20,0.0
21,0.0
83,285120.
105,123120.
127,285120.
149,123120.
171,533520.
247,0.0
248,-4.574807897252994E-002
249,-3.125477659035127E-002
250,-6.013511376680373E-006
251,0.167880361579758
252,-5.967468320250848E-006
253,-2.468329920863014E-005
326,2770.10076226838
327,17.4855618977157
360,2805.81802847974
361,22.151502812306
394,1194.20216680753
395,22.0002192955411
428,2709.97310674057
429,22.14994070277
462,1183.87150837206
463,22.0002192935142
496,1687.20096945857
497,22.0009536949568
615,3332.89858038192
658,3213.60528503311
1,CHICAGO_IL_USA ANNUAL COOLING 1% DESIGN CONDITIONS DB/MCWB,  41.98, -87.92,  -6.00, 201.00
2,1, 7,21, 0, 1, 0.00,60.00,SummerDesignDay
6,22.59625
7,82.616415277035
8,5.2
9,230.
10,0.0
11,0.0
12,100.32
13,43.32
14,100.32
15,43.32
16,187.72
17,0.0
18,0.0
19,0.0
20,0.0
21,0.0
83,285120.
105,123120.
127,285120.
149,123120.
171,533520.
247,0.0
248,-44.5958225617356
249,-16.4595101365968
250,-4.13928752381945
251,-15.7506595180898
252,-5.28119680728168
253,-20.4031543078755
326,0.0
327,21.261073050669
360,0.0
361,19.8252330467934
394,0.0
395,18.3945948548576
428,0.0
429,19.8144554465155
462,0.0
463,18.3794509599642
496,0.0
497,19.82749754794
615,0.0
658,0.0
2,1, 7,21, 0, 2, 0.00,60.00,SummerDesignDay
6,22.0975
7,85.158529607464
8,5.2
9,230.
10,0.0
11,0.0
12,100.32
13,43.32
14,100.32
15,43.32
16,187.72
17,0.0
18,0.0
19,0.0
20,0.0
21,0.0
83,285120.
105,123120.
127,285120.
149,123120.
171,533520.
247,0.0
248,-35.7496300693564
249,-12.3019527388299
250,-3.05781931412349
251,-11.8436672534409
252,-3.64724710921138
253,-15.1069666590212
326,0.0
327,20.8411893036849
360,0.0
361,19.6731057011726
394,0.0
395,18.248766555411
428,0.0
429,19.6642986525889
462,0.0
463,18.2010360189426
496,0.0
497,19.7119208271263
615,0.0
658,0.0
2,1, 7,21, 0, 3, 0.00,60.00,SummerDesignDay
6,21.743125
7,87.0194047757844
8,5.2
9,230.
10,0.0
11,0.0
12,100.32
13,43.32
14,100.32
15,43.32
16,187.72
17,0.0
18,0.0
19,0.0
20,0.0
21,0.0
83,285120.
105,123120.
127,285120.
149,123120.
171,533520.
247,0.0
248,-28.6322233455257
249,-9.3598667037598
250,-2.30686311471612
251,-9.05046284227188
252,-2.60620796974887
253,-11.4087764097061
326,0.0
327,20.5048564106621
360,0.0
361,19.5583695818538
394,0.0
395,18.1397401664598
428,0.0
429,19.5504591511876
462,0.0
463,18.0753489139756
496,0.0
497,19.6252229743286
615,0.0
658,0.0
2,1, 7,21, 0, 4, 0.00,60.00,SummerDesignDay
6,21.428125
7,88.7130414571123
8,5.2
9,230.
10,0.0
11,0.0
12,100.32
13,43.32
14,100.32
15,43.32
16,187.72
17,0.0
18,0.0
19,0.0
20,0.0
21,0.0
83,285120.
105,123120.
127,285120.
149,123120.
171,533520.
247,0.0
248,-22.8270858188279
249,-7.39350073634735
250,-1.80691787281829
251,-7.15842194025943
252,-1.95341182472548
253,-8.71387663104725
326,0.0
327,20.2366573904191
360,0.0
361,19.4694466858255
394,0.0
395,18.0559504679198
428,0.0
429,19.4619958168345
462,0.0
463,17.9832644208901
496,0.0
497,19.5593254029354
615,0.0
658,0.0
2,1, 7,21, 0, 5, 0.00,60.00,SummerDesignDay
6,21.17875
7,90.0793118386205
8,5.2
9,230.
10,9.22233433823099
11,0.0
12,100.32
13,43.32
14,100.32
15,43.32
16,187.72
17,0.0
18,0.0
19,0.0
20,0.0
21,0.0
83,285120.
105,123120.
127,285120.
149,123120.
171,533520.
247,0.765298515596138
248,-17.4063823935895
249,-5.30103080240248
250,2.996666287680938E-002
251,0.641337088160974
252,-1.2921889894721
253,-6.64152831453451
326,0.0
327,20.025666840753
360,0.0
361,19.4008399098863
394,0.0
395,18.0056773540886
428,0.0
429,19.410043296365
462,0.0
463,17.9157639129492
496,0.0
497,19.5089400021032
615,0.0
658,0.0
2,1, 7,21, 0, 6, 0.00,60.00,SummerDesignDay
6,21.23125
7,89.7895467085526
8,5.2
9,230.
10,314.874849912284
11,0.0
12,100.32
13,43.32
14,100.32
15,43.32
16,187.72
17,0.0
18,0.0
19,0.0
20,0.0
21,0.0
83,285120.
105,123120.
127,285120.
149,123120.
171,533520.
247,29.8860215073806
248,18.4472738675272
249,12.9113421312378
250,42.8946227291079
251,150.015028080951
252,5.37576124942384
253,4.07571696978515
326,0.0
327,20.0337208399615
360,0.0
361,19.4436340536949
394,0.0
395,18.9180535548978
428,0.0
429,20.3020137779504
462,0.0
463,18.003240333624
496,0.0
497,19.4978247235146
615,0.0
658,0.0
2,1, 7,21, 0, 7, 0.00,60.00,SummerDesignDay
6,21.769375
7,86.8862192738624
8,5.2
9,230.
10,598.021901431636
11,0.0
12,100.32
13,43.32
14,100.32
15,43.32
16,187.72
17,0.0
18,0.0
19,0.0
20,0.0
21,0.0
83,285120.
105,123120.
127,285120.
149,123120.
171,533520.
247,64.4760081833616
248,51.5512833211004
249,25.5724056270326
250,49.9389015530879
251,104.473462441255
252,8.66325816013582
253,22.2322447073574
326,0.0
327,20.4608644247856
360,0.0
361,19.6759617094583
394,0.0
395,20.9889501697357
428,0.0
429,21.7729930182134
462,0.0
463,18.327756145063
496,0.0
497,19.6062150901152
615,0.0
658,0.0
2,1, 7,21, 0, 8, 0.00,60.00,SummerDesignDay
6,23.160625
7,79.8749545490508
8,5.2
9,230.
10,729.10276244503
11,0.0
12,100.32
13,43.32
14,100.32
15,43.32
16,187.72
17,0.0
18,0.0
19,0.0
20,0.0
21,0.0
83,285120.
105,123120.
127,285120.
149,123120.
171,533520.
247,89.648788804589
248,58.2319058869746
249,33.8410320158048
250,40.306380014442
251,31.082245172797
252,9.89496045114563
253,24.7877176902562
326,0.0
327,21.0714096249557
360,0.0
361,20.0120320852336
394,0.0
395,22.9348799718356
428,0.0
429,22.4839868574562
462,0.0
463,18.7262338842288
496,0.0
497,19.7736636465953
615,0.0
658,0.0
2,1, 7,21, 0, 9, 0.00,60.00,SummerDesignDay
6,25.076875
7,71.2051392787146
8,5.2
9,230.
10,797.964006564965
11,0.0
12,3137.639976504
13,1384.19998932
14,3137.639976504
15,1384.19998932
16,5802.79995728
17,11.
18,5.
19,11.
20,5.
21,20.
83,5132160.
105,2216160.
127,5132160.
149,2216160.
171,9603360.
247,107.746729805535
248,201.134135360815
249,385.404656147159
250,12.4698025506095
251,135.21819657887
252,87.3027845999838
253,697.889612134304
326,433.211841541521
327,22.3196163969547
360,0.0
361,22.4900574168876
394,0.0
395,23.998926215273
428,0.0
429,23.9163873143659
462,0.0
463,21.2340473599946
496,0.0
497,22.6047376650521
615,0.0
658,0.0
2,1, 7,21, 0,10, 0.00,60.00,SummerDesignDay
6,26.940625
7,63.7626759566035
8,5.2
9,230.
10,836.571534039555
11,0.0
12,3744.839976504
13,1646.39998932
14,3744.839976504
15,1646.39998932
16,6938.99995728
17,11.
18,5.
19,11.
20,5.
21,20.
83,5417280.
105,2339280.
127,5417280.
149,2339280.
171,10136880.
247,121.76176453608
248,152.813800980248
249,126.634604755835
250,2.029993069669894E-002
251,0.202152456010805
252,54.746938485744
253,163.470168731459
326,175.578168873183
327,23.6835965303302
360,0.0
361,23.9514120690088
394,0.0
395,24.0031097119493
428,0.0
429,24.0021918515545
462,0.0
463,23.0047562191758
496,0.0
497,23.9722538351836
615,0.0
658,0.0
2,1, 7,21, 0,11, 0.00,60.00,SummerDesignDay
6,28.594375
7,57.8879724729406
8,5.2
9,230.
10,857.525260848616
11,0.0
12,3824.039976504
13,1680.59998932
14,3824.039976504
15,1680.59998932
16,7087.19995728
17,11.
18,5.
19,11.
20,5.
21,20.
83,5702400.
105,2462400.
127,5702400.
149,2462400.
171,10670400.
247,174.234048126455
248,63.152128106186
249,8.135255590914693E-002
250,4.314727228370859E-003
251,5.053283156832316E-002
252,12.6049267497222
253,0.125676209848528
326,0.0
327,24.5451330510878
360,0.0
361,24.0040149666212
394,0.0
395,24.0040440833439
428,0.0
429,24.0038697959554
462,0.0
463,23.8662914264759
496,0.0
497,24.0038812677599
615,0.0
658,0.0
2,1, 7,21, 0,12, 0.00,60.00,SummerDesignDay
6,29.84125
7,53.85543044468
8,5.2
9,230.
10,866.216138505671
11,0.0
12,3486.9119812032
13,1529.159991456
14,3486.9119812032
15,1529.159991456
16,6470.039965824
17,8.8
18,4.
19,8.8
20,4.
21,16.
83,5417280.
105,2339280.
127,5417280.
149,2339280.
171,10136880.
247,237.898126389328
248,53.9152251502664
249,-6.734821774118076E-002
250,-2.045204935142605E-002
251,-5.576866024581315E-002
252,0.140968112364016
253,3.524370988623628E-002
326,0.0
327,25.1729550175841
360,0.0
361,24.0035964354593
394,0.0
395,24.0034901884616
428,0.0
429,24.0035031126746
462,0.0
463,24.004173242645
496,0.0
497,24.0039093295651
615,0.0
658,0.0
2,1, 7,21, 0,13, 0.00,60.00,SummerDesignDay
6,30.76
7,51.0916862772923
8,5.2
9,230.
10,864.601860795804
11,0.0
12,2733.4559906016
13,1192.079995728
14,2733.4559906016
15,1192.079995728
16,5087.519982912
17,4.4
18,2.
19,4.4
20,2.
21,8.
83,4561920.
105,1969920.
127,4561920.
149,1969920.
171,8536320.
247,283.329804835877
248,51.7383581870829
249,-0.122300629041456
250,-2.771958432518883E-002
251,-0.116066358488705
252,-3.50270190477158
253,-0.243781968914276
326,0.0
327,25.7613160531201
360,0.0
361,24.0024315808972
394,0.0
395,24.0023147119748
428,0.0
429,24.0024002589444
462,0.0
463,23.8442705780996
496,0.0
497,24.0029687846133
615,0.0
658,0.0
2,1, 7,21, 0,14, 0.00,60.00,SummerDesignDay
6,31.403125
7,49.2514375318169
8,5.2
9,230.
10,852.330750348059
11,0.0
12,3407.7119812032
13,1494.959991456
14,3407.7119812032
15,1494.959991456
16,6321.839965824
17,8.8
18,4.
19,8.8
20,4.
21,16.
83,5132160.
105,2216160.
127,5132160.
149,2216160.
171,9603360.
247,305.717011052637
248,23.4670015840744
249,7.179244914344524E-002
250,4.330792011710067E-002
251,7.384301172831367E-002
252,3.49027985967118
253,0.14176396884798
326,0.0
327,26.1022566081614
360,0.0
361,24.0023310068073
394,0.0
395,24.0029609517826
428,0.0
429,24.0023274376327
462,0.0
463,23.9929275378811
496,0.0
497,24.0030750475868
615,0.0
658,0.0
2,1, 7,21, 0,15, 0.00,60.00,SummerDesignDay
6,31.6
7,48.702179534817
8,5.2
9,230.
10,826.550142732353
11,0.0
12,3718.439976504
13,1634.99998932
14,3718.439976504
15,1634.99998932
16,6889.59995728
17,11.
18,5.
19,11.
20,5.
21,20.
83,5702400.
105,2462400.
127,5702400.
149,2462400.
171,10670400.
247,323.071264232858
248,12.4063441638376
249,8.301503610016653E-002
250,2.522373843365280E-002
251,7.903612294641849E-002
252,2.109425062348807E-002
253,0.170167886831435
326,0.0
327,26.2936739879681
360,0.0
361,24.0034160543456
394,0.0
395,24.0045264943527
428,0.0
429,24.003423280472
462,0.0
463,24.0046328806498
496,0.0
497,24.0043349459658
615,0.0
658,0.0
2,1, 7,21, 0,16, 0.00,60.00,SummerDesignDay
6,31.20625
7,49.8066089662839
8,5.2
9,230.
10,780.187499235886
11,0.0
12,3612.839976504
13,1589.39998932
14,3612.839976504
15,1589.39998932
16,6691.99995728
17,11.
18,5.
19,11.
20,5.
21,20.
83,5702400.
105,2462400.
127,5702400.
149,2462400.
171,10670400.
247,326.636633070543
248,7.09011559883356
249,7.278423187646080E-003
250,1.147785322694453E-003
251,7.026442802505913E-003
252,-3.931972767563215E-003
253,2.315053274113640E-002
326,0.0
327,26.4072401386676
360,0.0
361,24.0037588643634
394,0.0
395,24.0049186790897
428,0.0
429,24.0037438982652
462,0.0
463,24.0045696070761
496,0.0
497,24.004750836042
615,0.0
658,0.0
2,1, 7,21, 0,17, 0.00,60.00,SummerDesignDay
6,30.445
7,52.0197469732492
8,5.2
9,230.
10,696.523849127388
11,0.0
12,3401.639976504
13,1498.19998932
14,3401.639976504
15,1498.19998932
16,6296.79995728
17,11.
18,5.
19,11.
20,5.
21,20.
83,5702400.
105,2462400.