Program Version,EnergyPlus-Darwin-64 8.1.0.009, YMD=2015.09.21 11:31
1,5,Environment Title[],Latitude[deg],Longitude[deg],Time Zone[],Elevation[m]
2,6,Day of Simulation[],Month[],Day of Month[],DST Indicator[1=yes 0=no],Hour[],StartMinute[],EndMinute[],DayType
3,3,Cumulative Day of Simulation[],Month[],Day of Month[],DST Indicator[1=yes 0=no],DayType  ! When Daily Report Variables Requested
4,2,Cumulative Days of Simulation[],Month[]  ! When Monthly Report Variables Requested
5,1,Cumulative Days of Simulation[] ! When Run Period Report Variables Requested
6,1,Environment,Site Outdoor Air Drybulb Temperature [C] !TimeStep
7,1,Environment,Site Outdoor Air Wetbulb Temperature [C] !TimeStep
8,1,Environment,Site Outdoor Air Relative Humidity [%] !TimeStep
9,1,Environment,Site Wind Speed [m/s] !TimeStep
10,1,Environment,Site Wind Direction [deg] !TimeStep
751,1,EMS,currentDayOfMonth [] !TimeStep
752,1,EMS,currentDayOfWeek [] !TimeStep
753,1,EMS,currentTimeOfDay [] !TimeStep
754,1,EMS,currentHoliday [] !TimeStep
827,1,BASEMENT,Zone Air Temperature [C] !TimeStep
860,1,CORE_BOTTOM,Zone Air Temperature [C] !TimeStep
893,1,CORE_MID,Zone Air Temperature [C] !TimeStep
926,1,CORE_TOP,Zone Air Temperature [C] !TimeStep
959,1,GROUNDFLOOR_PLENUM,Zone Air Temperature [C] !TimeStep
992,1,MIDFLOOR_PLENUM,Zone Air Temperature [C] !TimeStep
1025,1,PERIMETER_BOT_ZN_1,Zone Air Temperature [C] !TimeStep
1058,1,PERIMETER_BOT_ZN_2,Zone Air Temperature [C] !TimeStep
1091,1,PERIMETER_BOT_ZN_3,Zone Air Temperature [C] !TimeStep
1124,1,PERIMETER_BOT_ZN_4,Zone Air Temperature [C] !TimeStep
1157,1,PERIMETER_MID_ZN_1,Zone Air Temperature [C] !TimeStep
1190,1,PERIMETER_MID_ZN_2,Zone Air Temperature [C] !TimeStep
1223,1,PERIMETER_MID_ZN_3,Zone Air Temperature [C] !TimeStep
1256,1,PERIMETER_MID_ZN_4,Zone Air Temperature [C] !TimeStep
1289,1,PERIMETER_TOP_ZN_1,Zone Air Temperature [C] !TimeStep
1322,1,PERIMETER_TOP_ZN_2,Zone Air Temperature [C] !TimeStep
1355,1,PERIMETER_TOP_ZN_3,Zone Air Temperature [C] !TimeStep
1388,1,PERIMETER_TOP_ZN_4,Zone Air Temperature [C] !TimeStep
1421,1,TOPFLOOR_PLENUM,Zone Air Temperature [C] !TimeStep
1577,1,Whole Building,Facility Total Building Electric Demand Power [W] !TimeStep
1578,1,Whole Building,Facility Total HVAC Electric Demand Power [W] !TimeStep
1579,1,Whole Building,Facility Total Electric Demand Power [W] !TimeStep
1580,1,BASEMENT PEOPLE,Zone Thermal Comfort Fanger Model PMV [] !TimeStep
1581,1,BASEMENT PEOPLE,Zone Thermal Comfort Fanger Model PPD [%] !TimeStep
1582,1,CORE_BOTTOM PEOPLE,Zone Thermal Comfort Fanger Model PMV [] !TimeStep
1583,1,CORE_BOTTOM PEOPLE,Zone Thermal Comfort Fanger Model PPD [%] !TimeStep
1584,1,CORE_MID PEOPLE,Zone Thermal Comfort Fanger Model PMV [] !TimeStep
1585,1,CORE_MID PEOPLE,Zone Thermal Comfort Fanger Model PPD [%] !TimeStep
1586,1,CORE_TOP PEOPLE,Zone Thermal Comfort Fanger Model PMV [] !TimeStep
1587,1,CORE_TOP PEOPLE,Zone Thermal Comfort Fanger Model PPD [%] !TimeStep
1588,1,PERIMETER_BOT_ZN_1 PEOPLE,Zone Thermal Comfort Fanger Model PMV [] !TimeStep
1589,1,PERIMETER_BOT_ZN_1 PEOPLE,Zone Thermal Comfort Fanger Model PPD [%] !TimeStep
1590,1,PERIMETER_BOT_ZN_2 PEOPLE,Zone Thermal Comfort Fanger Model PMV [] !TimeStep
1591,1,PERIMETER_BOT_ZN_2 PEOPLE,Zone Thermal Comfort Fanger Model PPD [%] !TimeStep
1592,1,PERIMETER_BOT_ZN_3 PEOPLE,Zone Thermal Comfort Fanger Model PMV [] !TimeStep
1593,1,PERIMETER_BOT_ZN_3 PEOPLE,Zone Thermal Comfort Fanger Model PPD [%] !TimeStep
1594,1,PERIMETER_BOT_ZN_4 PEOPLE,Zone Thermal Comfort Fanger Model PMV [] !TimeStep
1595,1,PERIMETER_BOT_ZN_4 PEOPLE,Zone Thermal Comfort Fanger Model PPD [%] !TimeStep
1596,1,PERIMETER_MID_ZN_1 PEOPLE,Zone Thermal Comfort Fanger Model PMV [] !TimeStep
1597,1,PERIMETER_MID_ZN_1 PEOPLE,Zone Thermal Comfort Fanger Model PPD [%] !TimeStep
1598,1,PERIMETER_MID_ZN_2 PEOPLE,Zone Thermal Comfort Fanger Model PMV [] !TimeStep
1599,1,PERIMETER_MID_ZN_2 PEOPLE,Zone Thermal Comfort Fanger Model PPD [%] !TimeStep
1600,1,PERIMETER_MID_ZN_3 PEOPLE,Zone Thermal Comfort Fanger Model PMV [] !TimeStep
1601,1,PERIMETER_MID_ZN_3 PEOPLE,Zone Thermal Comfort Fanger Model PPD [%] !TimeStep
1602,1,PERIMETER_MID_ZN_4 PEOPLE,Zone Thermal Comfort Fanger Model PMV [] !TimeStep
1603,1,PERIMETER_MID_ZN_4 PEOPLE,Zone Thermal Comfort Fanger Model PPD [%] !TimeStep
1604,1,PERIMETER_TOP_ZN_1 PEOPLE,Zone Thermal Comfort Fanger Model PMV [] !TimeStep
1605,1,PERIMETER_TOP_ZN_1 PEOPLE,Zone Thermal Comfort Fanger Model PPD [%] !TimeStep
1606,1,PERIMETER_TOP_ZN_2 PEOPLE,Zone Thermal Comfort Fanger Model PMV [] !TimeStep
1607,1,PERIMETER_TOP_ZN_2 PEOPLE,Zone Thermal Comfort Fanger Model PPD [%] !TimeStep
1608,1,PERIMETER_TOP_ZN_3 PEOPLE,Zone Thermal Comfort Fanger Model PMV [] !TimeStep
1609,1,PERIMETER_TOP_ZN_3 PEOPLE,Zone Thermal Comfort Fanger Model PPD [%] !TimeStep
1610,1,PERIMETER_TOP_ZN_4 PEOPLE,Zone Thermal Comfort Fanger Model PMV [] !TimeStep
1611,1,PERIMETER_TOP_ZN_4 PEOPLE,Zone Thermal Comfort Fanger Model PPD [%] !TimeStep
1612,1,BLDG_LIGHT_SCH,Schedule Value [] !TimeStep
1613,1,CLGSETP_SCH,Schedule Value [] !TimeStep
1614,1,HTGSETP_SCH,Schedule Value [] !TimeStep
1615,1,CW-LOOP-TEMP-SCHEDULE,Schedule Value [] !TimeStep
1616,1,HW-LOOP-TEMP-SCHEDULE,Schedule Value [] !TimeStep
1853,1,COOLSYS1 CHILLER 1,Chiller Evaporator Outlet Temperature [C] !TimeStep
1867,1,COOLSYS1 CHILLER 2,Chiller Evaporator Outlet Temperature [C] !TimeStep
1901,1,HEATSYS1 BOILER,Boiler Outlet Temperature [C] !TimeStep
End of Data Dictionary
1,Chicago Ohare Intl Ap IL USA TMY3 WMO#=725300,  41.98, -87.92,  -6.00, 201.00
2,1, 7,17, 1, 1, 0.00, 5.00,Thursday       
6,26.0583333333333
7,23.7105968558398
8,82.5
9,3.64166666666667
10,238.333333333333
751,17.
752,5.
753,8.333333333333333E-002
754,0.0
1580,-0.316393057753637
1581,7.08100381330591
1582,0.125754573205463
1583,5.3275926039427
1584,0.197144434835866
1585,5.80591791242914
1586,-0.341740553775955
1587,7.42938388449481
1588,0.40232074846833
1589,8.37275128047096
1590,0.368755254803624
1591,7.83073148744187
1592,0.347856831230528
1593,7.51753212663679
1594,0.441680836439564
1595,9.06977247085325
1596,0.488303191590023
1597,9.981562393066
1598,0.426650408343587
1599,8.79575798457903
1600,0.435781934647285
1601,8.96107494527868
1602,0.534716232063939
1603,10.982454178961
1604,-0.186423159820984
1605,5.72051784658825
1606,-0.583942041220451
1607,12.1459508821577
1608,-0.161479209663583
1609,5.54039957900807
1610,-0.586945671987712
1611,12.220346723625
1612,5.000000000000000E-002
1613,27.
1614,15.6
1615,6.7
1616,82.2
827,25.1467183643915
860,26.482118901191
893,26.6958032354316
926,24.8106183813307
959,25.9952498760237
992,26.0764812380071
1025,26.7860489338111
1058,26.6804096847978
1091,26.618154700735
1124,26.9000515592637
1157,27.0337358148194
1190,26.8464810466443
1223,26.8738201320116
1256,27.1665421082194
1289,25.241724849566
1322,24.2566032508971
1355,25.271890935985
1388,24.303809839225
1421,26.0292907136491
1577,287767.469609045
1578,2.22910539620137
1579,287769.698714441
1853,10.0149031791608
1867,10.0149031791608
1901,79.1334716212425
2,1, 7,17, 1, 1, 5.00,10.00,Thursday       
6,26.0166666666667
7,23.7410132747338
8,83.
9,3.68333333333333
10,236.666666666667
751,17.
752,5.
753,0.166666666666667
754,0.0
1580,-0.316474548350731
1581,7.082080180905
1582,0.127303534598412
1583,5.33571824208643
1584,0.200054977053245
1585,5.82993101032602
1586,-0.162663355511978
1587,5.54836342756674
1588,0.404631888989652
1589,8.41184389024511
1590,0.37162721453119
1591,7.87522677831107
1592,0.350295632349992
1593,7.55312381418365
1594,0.444219210413908
1595,9.11700661364063
1596,0.491603487172992
1597,10.0496577138057
1598,0.430709368380849
1599,8.8687993527703
1600,0.439119208277182
1601,9.02238635943991
1602,0.538090742963597
1603,11.0588602079885
1604,2.895253700497138E-002
1605,5.01735283486933
1606,-0.250194541554664
1607,6.29930998294915
1608,3.007869559842053E-002
1609,5.01872908135988
1610,-0.221323728939539
1611,6.0161666020991
1612,5.000000000000000E-002
1613,27.
1614,15.6
1615,6.7
1616,82.2
827,25.1465150346399
860,26.4876033443643
893,26.7058873476079
926,25.4880124549647
959,25.9972945220486
992,26.0792045449058
1025,26.7855157019597
1058,26.6816086239805
1091,26.6180992319608
1124,26.9001197896999
1157,27.0364996707483
1190,26.8515823604884
1223,26.8767495660264
1256,27.1693820401745
1289,25.9453044474116
1322,25.2699585659559
1355,25.9082903130316
1388,25.3962804459673
1421,26.2722904191347
1577,287767.469609045
1578,2.22671024307771
1579,287769.696319288
1853,10.0149031791608
1867,10.0149031791608
1901,79.1334716212425
2,1, 7,17, 1, 1,10.00,15.00,Thursday       
6,25.975
7,23.7711156089752
8,83.5
9,3.725
10,235.
751,17.
752,5.
753,0.25
754,0.0
1580,-0.316562721990756
1581,7.08324513824959
1582,0.129063378616501
1583,5.34507119507039
1584,0.203364570255231
1585,5.85766691723587
1586,-2.140856534388427E-002
1587,5.00948778654832
1588,0.407511218953668
1589,8.46086721532902
1590,0.375128029530873
1591,7.92994059893736
1592,0.353319638231202
1593,7.59760725456019
1594,0.447340679310115
1595,9.17547076898117
1596,0.495593833106237
1597,10.1326190443021
1598,0.43554567283784
1599,8.95675254666112
1600,0.443155668744781
1601,9.09718248475986
1602,0.542153840812536
1603,11.1515118742911
1604,0.176644836446496
1605,5.64681537380696
1606,-3.527207091022294E-002
1607,5.02575532358576
1608,0.163210091741752
1609,5.55206016842034
1610,1.042053601255621E-002
1611,5.00224782797467
1612,5.000000000000000E-002
1613,27.
1614,15.6
1615,6.7
1616,82.2
827,25.1463190656715
860,26.492949526749
893,26.7158321178023
926,25.9025072593923
959,25.9991673077516
992,26.0818237688285
1025,26.7842121174324
1058,26.6819199901065
1091,26.6172551431353
1124,26.8993015747117
1157,27.0383942600687
1190,26.8557264497673
1223,26.8788220749001
1256,27.1712573024773
1289,26.3202575070425
1322,25.7907678931221
1355,26.251099081532
1388,25.9528037128128
1421,26.3930339373908
1577,287767.469609045
1578,2.22484743239782
1579,287769.694456477
1853,10.0149031791608
1867,10.0149031791608
1901,79.1334716212425
2,1, 7,17, 1, 1,15.00,20.00,Thursday       
6,25.9333333333333
7,23.8009025499904
8,84.
9,3.76666666666667
10,233.333333333333
751,17.
752,5.
753,0.333333333333333
754,0.0
1580,-0.316648719474238
1581,7.08438166127922
1582,0.130783387784798
1583,5.35433688321532
1584,0.206634822923498
1585,5.88552323410637
1586,6.459898570559162E-002
1587,5.08639994304545
1588,0.41019041701169
1589,8.50680194474707
1590,0.378391695874914
1591,7.98141893616018
1592,0.356141013760062
1593,7.63946082873949
1594,0.45022383258729
1595,9.22984359220087
1596,0.499362952117668
1597,10.211612606297
1598,0.44013001945754
1599,9.04105110223448
1600,0.446975382330048
1601,9.16860722236089
1602,0.545965048535189
1603,11.2390698163963
1604,0.258403515548981
1605,6.38621058022406
1606,8.161976320380926E-002
1607,5.13794341326253
1608,0.237792541428004
1609,6.1733937522831
1610,0.135323620155743
1611,5.3793861652143
1612,5.000000000000000E-002
1613,27.
1614,15.6
1615,6.7
1616,82.2
827,25.1460861799971
860,26.4993338227698
893,26.7278489652258
926,26.2477098177762
959,26.0012968713931
992,26.0849486880668
1025,26.7819678450097
1058,26.6815178417197
1091,26.6155573806114
1124,26.8975194963769
1157,27.0399592066909
1190,26.8599326656106
1223,26.8806201378064
1256,27.1726952970723
1289,26.5993167567639
1322,26.1646782587758
1355,26.5098410474771
1388,26.3496494331604
1421,26.4740780584468
1577,287767.469609045
1578,2.22351137557145
1579,287769.69312042
1853,10.0149031791608
1867,10.0149031791608
1901,79.1334716212425
2,1, 7,17, 1, 1,20.00,25.00,Thursday       
6,25.8916666666667
7,23.8303852323155
8,84.5
9,3.80833333333333
10,231.666666666667
751,17.
752,5.
753,0.416666666666667
754,0.0
1580,-0.316740755133492
1581,7.08559833050587
1582,0.132698991628761
1583,5.36480105535284
1584,0.210291215072431
1585,5.91719866950936
1586,0.135885233173374
1587,5.3825442777956
1588,0.413405888185146
1589,8.56233698662136
1590,0.382240619405819
1591,8.04271277784446
1592,0.359513921709684
1593,7.68994071829019
1594,0.45364626372128
1595,9.29485071928488
1596,0.503780225229845
1597,10.3049715009885
1598,0.445441172493682
1599,9.13984368822533
1600,0.451453875931798
1601,9.25314955247251
1602,0.550413459158415
1603,11.3420629150529
1604,0.322210112708499
1605,7.15854512658345
1606,0.166763528641157
1607,5.57639033541481
1608,0.296936624927973
1609,6.83205880877671
1610,0.22565445682569
1611,6.05640959211713
1612,5.000000000000000E-002
1613,27.
1614,15.6
1615,6.7
1616,82.2
827,25.1459023282476
860,26.5043960186069
893,26.7375027749491
926,26.4560072034621
959,26.0028923822465
992,26.0874184579419
1025,26.77968373352
1058,26.6806454159644
1091,26.6137175833083
1124,26.8955107877433
1157,27.0407430344898
1190,26.8628011872963
1223,26.8816079200205
1256,27.1732967456611
1289,26.7452472106308
1322,26.3567604279743
1355,26.6504770711412
1388,26.5462610027174
1421,26.5095746212353
1577,287767.469609045
1578,2.22262164224516
1579,287769.692230687
1853,10.0149031791608
1867,10.0149031791608
1901,79.1334716212425
2,1, 7,17, 1, 1,25.00,30.00,Thursday       
6,25.85
7,23.8595483704896
8,85.
9,3.85
10,230.
751,17.
752,5.
753,0.5
754,0.0
1580,-0.31682278313974
1581,7.08668300556688
1582,0.134328942199824
1583,5.3738250014037
1584,0.213459887611612
1585,5.94510164639712
1586,0.17965591213541
1587,5.669085495796
1588,0.415802193366559
1589,8.60401214021215
1590,0.385157175324888
1591,8.08957993698155
1592,0.362050958906734
1593,7.72822993341705
1594,0.456181524413807
1595,9.34333152085249
1596,0.507231641283715
1597,10.3785039616292
1598,0.44965053967804
1599,9.21900349481139
1600,0.454964796491295
1601,9.32002998521274
1602,0.553857157754733
1603,11.4223831720917
1604,0.358524585160754
1605,7.67508383332513
1606,0.215110033831047
1607,5.95979913772054
1608,0.33168080489987
1609,7.2878585190834
1610,0.275749612832833
1611,6.57916603530487
1612,5.000000000000000E-002
1613,27.
1614,15.6
1615,6.7
1616,82.2
827,25.1457232340732
860,26.5093254378111
893,26.7470033758325
926,26.6295940255414
959,26.0043934797723
992,26.089841173733
1025,26.7770995896052
1058,26.6793915166842
1091,26.611577488158
1124,26.8931185013369
1157,27.0411839356049
1190,26.8652524064837
1223,26.8822645351669
1256,27.1734937141079
1289,26.8530524778279
1322,26.5035390238074
1355,26.7508876606319
1388,26.6904540800768
1421,26.5319003638871
1577,287767.469609045
1578,2.22217918759801
1579,287769.691788232
1853,10.0149031791608
1867,10.0149031791608
1901,79.1334716212425
2,1, 7,17, 1, 1,30.00,35.00,Thursday       
6,25.8083333333333
7,23.8884092549663
8,85.5
9,3.89166666666667
10,228.333333333333
751,17.
752,5.
753,0.583333333333333
754,0.0
1580,-0.316903195604004
1581,7.08774659461697
1582,0.135926209885808
1583,5.38277521532302
1584,0.216596003605992
1585,5.9731319368785
1586,0.21686631650969
1587,5.97556725071172
1588,0.418100978168246
1589,8.64422256555559
1590,0.387952030508807
1591,8.13483231710744
1592,0.364491610383015
1593,7.76532320821958
1594,0.458594359434644
1595,9.38972816296155
1596,0.510576057655012
1597,10.4502481103762
1598,0.453730302017274
1599,9.2964533182892
1600,0.458373018059028
1601,9.38546152704843
1602,0.557175023861219
1603,11.5002548339677
1604,0.387335212931655
1605,8.12481653507784
1606,0.25383587924433
1607,6.33750761887944
1608,0.358629587194375
1609,7.67665867402303
1610,0.314200524891114
1611,7.05214935948248
1612,5.000000000000000E-002
1613,27.
1614,15.6
1615,6.7
1616,82.2
827,25.1455484791353
860,26.5141428271704
893,26.756383556339
926,26.7599805419748
959,26.0058156378431
992,26.0922284332409
1025,26.7742646844802
1058,26.6778182415254
1091,26.6091882465411
1124,26.8904051186899
1157,27.0413418848356
1190,26.867357379196
1223,26.8826496200084
1256,27.1733558681125
1289,26.9268254811255
1322,26.6102026686856
1355,26.8190872751447
1388,26.7993788745677
1421,26.5455010323969
1577,287767.469609045
1578,2.22216026523114
1579,287769.69176931
1853,10.0149031791608
1867,10.0149031791608
1901,79.1334716212425
2,1, 7,17, 1, 1,35.00,40.00,Thursday       
6,25.7666666666667
7,23.9169690440234
8,86.
9,3.93333333333333
10,226.666666666667
751,17.
752,5.
753,0.666666666666667
754,0.0
1580,-0.316982014709288
1581,7.08878937466822
1582,0.137490316133751
1583,5.39164246528061
1584,0.219696118189699
1585,6.00124537682275
1586,0.245796151581071
1587,6.25391410901011
1588,0.42030903985926
1589,8.68305936802795
1590,0.390632276568769
1591,8.17854249664173
1592,0.366842507375316
1593,7.80129234396298
1594,0.46089151320696
1595,9.43413326307996
1596,0.513819906249565
1597,10.520296988866
1598,0.4576864488911
1599,9.37224045279994
1600,0.461684572419548
1601,9.44951624767498
1602,0.56037347191461
1603,11.5757755621193
1604,0.409270039331375
1605,8.49098744764363
1606,0.284352372890547
1607,6.67956583018449
1608,0.379091398846739
1609,7.99251463144829
1610,0.345273565236852
1611,7.48010794043343
1612,5.000000000000000E-002
1613,27.
1614,15.6
1615,6.7
1616,82.2
827,25.1453778783537
860,26.518860962284
893,26.7656613541669
926,26.8554693040008
959,26.0071676866851
992,26.0945874067279
1025,26.7712010505499
1058,26.6759513319088
1091,26.6065737408346
1124,26.8873938645525
1157,27.0412447474508
1190,26.8691461961073
1223,26.8827915160198
1256,27.1729118295535
1289,26.9782002502356
1322,26.6860849717481
1355,26.8663858523208
1388,26.8780351615174
1421,26.5535840288483
1577,287767.469609045
1578,2.2225430597177
1579,287769.692152104
1853,10.0149031791608
1867,10.0149031791608
1901,79.1334716212425
2,1, 7,17, 1, 1,40.00,45.00,Thursday       
6,25.725
7,23.9452223645422
8,86.5
9,3.975
10,225.
751,17.
752,5.
753,0.75
754,0.0
1580,-0.317059286160731
1581,7.08981193466937
1582,0.139024404549883
1583,5.40043841309034
1584,0.222764159782581
1585,6.02946444865717
1586,0.267804376632389
1587,6.48921146115897
1588,0.42243758773732
1589,8.72069553945926
1590,0.393212375590235
1591,8.22090946462887
1592,0.369115362622637
1593,7.83629135913148
1594,0.463088182405571
1595,9.47680848969773
1596,0.516975444679953
1597,10.5888755998455
1598,0.461533922861751
1599,9.44659201149568
1600,0.464911880847319
1601,9.51239581889598
1602,0.563467935739612
1603,11.6492632794021
1604,0.426558313784734
1605,8.79410893761523
1606,0.308480768691225
1607,6.97783362140393
1608,0.39522973143015
1609,8.2542340490363
1610,0.370056692294124
1611,7.85085109685777
1612,5.000000000000000E-002
1613,27.
1614,15.6
1615,6.7
1616,82.2
827,25.1452113963809
860,26.5234856607317
893,26.7748415203304
926,26.9262648024449
959,26.0084591674754
992,26.0969252993348
1025,26.7679385622693
1058,26.6738285660437
1091,26.6037635907352
1124,26.8841252333113
1157,27.0409226712419
1190,26.8706549521165
1223,26.8827196728237
1256,27.1721999553627
1289,27.015314372542
1322,26.741635678511
1355,26.9004492359839
1388,26.9359760833986
1421,26.5578664168706
1577,287767.469609045
1578,2.22330749306607
1579,287769.692916538
1853,10.0149031791608
1867,10.0149031791608
1901,79.1334716212425
2,1, 7,17, 1, 1,45.00,50.00,Thursday       
6,25.6833333333333
7,23.9731677359606
8,87.
9,4.01666666666667
10,223.333333333333
751,17.
752,5.
753,0.833333333333333
754,0.0
1580,-0.317135026930717
1581,7.09081448410804
1582,0.140530223827744
1583,5.40916751281806
1584,0.225801485691411
1585,6.05778964762835
1586,0.28477888955443
1587,6.68462478956025
1588,0.424489463589672
1589,8.75715997734829
1590,0.395695562377756
1591,8.26195381285886
1592,0.371358037001029
1593,7.87104147354238
1594,0.465187152352579
1595,9.5177798629847
1596,0.520045227930055
1597,10.6560039130552
1598,0.465275271542523
1599,9.5195040787536
1600,0.468057111242097
1601,9.57410793018764
1602,0.566460786380805
1603,11.7207329432766
1604,0.440737945511871
1605,9.05229766917746
1606,0.328161929682617
1607,7.23936742212061
1608,0.408496017718149
1609,8.47771581542656
1610,0.390292682228617
1611,8.17298731700717
1612,5.000000000000000E-002
1613,27.
1614,15.6
1615,6.7
1616,82.2
827,25.1450490213244
860,26.5280223678735
893,26.7839282470906
926,26.9800827616526
959,26.0096947203852
992,26.0992447684522
1025,26.7644889656393
1058,26.6714635452178
1091,26.6007986004882
1124,26.8806117426339
1157,27.0403876319715
1190,26.8718960854024
1223,26.882446030603
1256,27.1712328697189
1289,27.0431740985059
1322,26.7837908119479
1355,26.9259691109186
1388,26.9799421516138
1421,26.5596014389932
1577,287767.469609045
1578,2.22443505446651
1579,287769.694044099
1853,10.0149031791608
1867,10.0149031791608
1901,79.1334716212425
2,1, 7,17, 1, 1,50.00,55.00,Thursday       
6,25.6416666666667
7,24.0008248944335
8,87.5
9,4.05833333333333
10,221.666666666667
751,17.
752,5.
753,0.916666666666667
754,0.0
1580,-0.317209250392664
1581,7.0917971853342
1582,0.142009442531858
1583,5.41783428781527
1584,0.228809363541512
1585,6.08622142281457
1586,0.298207118635328
1587,6.84782614017188
1588,0.426472769227563
1589,8.79257750114138
1590,0.398092433694481
1591,8.30182154906075
1592,0.373504285638674
1593,7.90449830274505
1594,0.467199870389291
1595,9.55724587749127
1596,0.523037406462769
1597,10.7218276664056
1598,0.468920643669309
1599,9.5911257549356
1600,0.471128507980717
1601,9.63478275075896
1602,0.569362841992809
1603,11.7904054232912
1604,0.452845859415915
1605,9.27960234770701
1606,0.34485126254916
1607,7.47401695248216
1608,0.419856000929099
1609,8.6750739838711
1610,0.407406892962255
1611,8.45908476879151
1612,5.000000000000000E-002
1613,27.
1614,15.6
1615,6.7
1616,82.2
827,25.1448907497814
860,26.5324762223713
893,26.7929253942677
926,27.0222680936927
959,26.0108806957079
992,26.1015497198181
1025,26.7608733429385
1058,26.6688839630997
1091,26.5977124010714
1124,26.876883488178
1157,27.039659867741
1190,26.8728950806545
1223,26.8819900441193
1256,27.1700376046868
1289,27.0649139791804
1322,26.8170701245489
1355,26.9458579594182
1388,27.0144914545149
1421,26.5593852049932
1577,287767.469609045
1578,2.22590865009191
1579,287769.695517695
1853,10.0149031791608
1867,10.0149031791608
1901,79.1334716212425
2,1, 7,17, 1, 1,55.00,60.00,Thursday       
6,25.6
7,24.0281795299291
8,88.
9,4.1
10,220.
751,17.
752,5.
753,1.
754,0.0
1580,-0.317281968860865
1581,7.09276018713271
1582,0.143463609155074
1583,5.42644304900919
1584,0.231789005955106
1585,6.11476043888565
1586,0.309141976915867
1587,6.98635378566823
1588,0.428388893542338
1589,8.82695561845968
1590,0.400404713043128
1591,8.34051512331919
1592,0.375586644342304
1593,7.93714696158059
1594,0.469127658126956
1595,9.59521020993286
1596,0.525952871275014
1597,10.7863365585228
1598,0.472470992479655
1599,9.66143096103019
1600,0.474150898065469
1601,9.69488639416747
1602,0.572191179103325
1603,11.8586596012832
1604,0.463473932643333
1605,9.48432400525827
1606,0.359391277798839
1607,7.68809670956438
1608,0.42986051052191
1609,8.85346559643371
1610,0.422241951190031
1611,8.71722825982515
1612,5.000000000000000E-002
1613,27.
1614,15.6
1615,6.7
1616,82.2
827,25.1447365774508
860,26.5368520409561
893,26.8018366609198
926,27.0564011498855
959,26.0120194004925
992,26.1038410576862
1025,26.7570988279212
1058,26.666098540316
1091,26.5944560575014
1124,26.8729482160886
1157,27.0387459922351
1190,26.873659132332
1223,26.8813187184162
1256,27.1685467488498
1289,27.0823599512824
1322,26.8441146669782
1355,26.96181809358
1388,27.0423462145732
1421,26.5576599016745
1577,287767.469609045
1578,2.22771247022871
1579,287769.697321515
1853,10.0149031791608
1867,10.0149031791608
1901,79.1334716212425
2,1, 7,17, 1, 2, 0.00, 5.00,Thursday       
6,25.55
7,24.0135456970152
8,88.25
9,4.05833333333333
10,220.
751,17.
752,5.
753,1.08333333333333
754,0.0
1580,-0.317325109607337
1581,7.09333160064566
1582,0.144903572175425
1583,5.43505445661327
1584,0.234730437719121
1585,6.1432988245095
1586,0.318247044956549
1587,7.10556178772177
1588,0.430241385516148
1589,8.86034189118756
1590,0.402644329602918
1591,8.37821084621598
1592,0.377566626736694
1593,7.96836206254417
1594,0.470977140595648
1595,9.63178299375593
1596,0.528743541678088
1597,10.8484288660775
1598,0.475899392433935
1599,9.72983700784381
1600,0.477029024351882
1601,9.75248729382157
1602,0.574845473557672
1603,11.9230293966011
1604,0.472953709681073
1605,9.67103184935046
1606,0.372277367054642
1607,7.88534841342559
1608,0.438833791253974
1609,9.01712405029434
1610,0.435338619754375
1611,8.9529664915563
1612,5.000000000000000E-002
1613,27.
1614,15.6
1615,6.7
1616,82.2
827,25.1445868226832
860,26.5411120602601
893,26.8105770594527
926,27.0846746642862
959,26.0130647237537
992,26.1060624179889
1025,26.7526414902489
1058,26.6626180694291
1091,26.5905249838606
1124,26.8682746123083
1157,27.0369576920777
1190,26.873588002677
1223,26.8799884394772
1256,27.1662887016971
1289,27.096050448838
1322,26.8660607111135
1355,26.9743808825441
1388,27.064735334032
1421,26.5540601337711
1577,287767.469609045
1578,2.22983187143175
1579,287769.699440916
1853,10.0149031791608
1867,10.0149031791608
1901,79.1334716212425
2,1, 7,17, 1, 2, 5.00,10.00,Thursday       
6,25.5
7,23.998806510212
8,88.5
9,4.01666666666667
10,220.
751,17.
752,5.
753,1.16666666666667
754,0.0
1580,-0.317366917648955
1581,7.09388543726956
1582,0.14632698820238
1583,5.44365174218811
1584,0.237657248445235
1585,6.17205575666902
1586,0.326103813268877
1587,7.2112494562687
1588,0.431835768670481
1589,8.88919438952512
1590,0.404617875933764
1591,8.41160617252991
1592,0.37932496807034
1593,7.99622315884186
1594,0.472547333023041
1595,9.66294864930688
1596,0.531265377624023
1597,10.9048296498255
1598,0.479053925910074
1599,9.79322640385394
1600,0.479684978690696
1601,9.8059587374032
1602,0.577245289640601
1603,11.9814908979992
1604,0.48142036184223
1605,9.84106099111526
1606,0.383855438862568
1607,8.06861699612024
1608,0.446880024458612
1609,9.16681649259868
1610,0.446968392716444
1611,9.16847595081178
1612,5.000000000000000E-002
1613,27.
1614,15.6
1615,6.7
1616,82.2
827,25.1444410832575
860,26.5452929209717
893,26.819217895169
926,27.1088319335776
959,26.0140313648769
992,26.1082299984755
1025,26.7477665851483
1058,26.6587045052324
1091,26.586147279844
1124,26.8631404091164
1157,27.034700921537
1190,26.8730345635098
1223,26.8781686097918
1256,27.1634627874852
1289,27.1069618523
1322,26.8842109574925
1355,26.9844295844031
1388,27.0829442806166
1421,26.5490024549521
1577,287767.469609045
1578,2.22976416353021
1579,287769.699373208
1853,10.0149031791608
1867,10.0149031791608
1901,79.1334716212425
2,1, 7,17, 1, 2,10.00,15.00,Thursday       
6,25.45
7,23.9839440398642
8,88.75
9,3.975
10,220.
751,17.
752,5.
753,1.25
754,0.0
1580,-0.317407275751246
1581,7.09442013659846
1582,0.147728534242482
1583,5.45219935369163
1584,0.24055735935843
1585,6.20090506398523
1586,0.333010389049725
1587,7.30631733788807
1588,0.43325916806621
1589,8.91504492002437
1590,0.406410662135816
1591,8.44208728480648
1592,0.380913548142928
1593,8.0215078315132
1594,0.473931225798243
1595,9.69050469132927
1596,0.533602633314282
1597,10.9573482014977
1598,0.482013593594894
1599,9.85309031369245
1600,0.482158870566317
1601,9.85603849808642
1602,0.579439860767301
1603,12.0351711968371
1604,0.489096405079125
1605,9.99788591482547
1606,0.394355578951537
1607,8.23977261176806
1608,0.454203443290557
1609,9.30548173095609
1610,0.457447966634355
1611,9.36765281388412
1612,5.000000000000000E-002
1613,27.
1614,15.6
1615,6.7
1616,82.2
827,25.1442992354003
860,26.5494146916772
893,26.8277961824524
926,27.1300135950666
959,26.0149310504576
992,26.1103594869516
1025,26.7425455783228
1058,26.6544250034738
1091,26.5814435580345
1124,26.8576233665745
1157,27.0320641208325
1190,26.8720815949296
1223,26.8759877128158
1256,27.160219178413
1289,27.1157488579422
1322,26.8995323402316
1355,26.9925463644565
1388,27.0979880489629
1421,26.5427855107907
1577,287767.469609045
1578,2.22748109557751
1579,287769.69709014
1853,10.0149031791608
1867,10.0149031791608
1901,79.1334716212425
2,1, 7,17, 1, 2,15.00,20.00,Thursday       
6,25.4
7,23.9689613385146
8,89.
9,3.93333333333333
10,220.
751,17.
752,5.
753,1.33333333333333
754,0.0
1580,-0.317446229384291
1581,7.09493629373667
1582,0.14911174732716
1583,5.4607153490164
1584,0.243436977311262
1585,6.22989997342893
1586,0.339204990244979
1587,7.3933072661779
1588,0.434529456922207
1589,8.93818825790295
1590,0.408039367769016
1591,8.46989797686318
1592,0.382355097420781
1593,8.04454551666298
1594,0.475146904170144
1595,9.7147793785916
1596,0.535775425356622
1597,11.0063834306056
1598,0.484797173143788
1599,9.90973744845125
1600,0.484475029411442
1601,9.90316456538626
1602,0.581456932128217
1603,12.0846940668853
1604,0.496102051439921
1605,10.1432345364437
1606,0.40395859672601
1607,8.40043164915326
1608,0.460912033498312
1609,9.43453095422528
1610,0.46695527818815
1611,9.55244051942927
1612,5.000000000000000E-002
1613,27.
1614,15.6
1615,6.7
1616,82.2
827,25.1441612883162
860,26.5534800227874
893,26.8363137741601
926,27.1489399950568
959,26.015769545691
992,26.1124590654468
1025,26.7370450903529
1058,26.6498425984223
1091,26.5764795243013
1124,26.8517916810658
1157,27.029113307193
1190,26.8707905115341
1223,26.8735144590688
1256,27.1566352198384
1289,27.1227869631258
1322,26.9124628886177
1355,26.9990746630935
1388,27.1104307046216
1421,26.5356070452619
1577,287767.469609045
1578,2.22554618547608
1579,287769.69515523
1853,10.0149031791608
1867,10.0149031791608
1901,79.1334716212425
2,1, 7,17, 1, 2,20.00,25.00,Thursday       
6,25.35
7,23.9538679504065
8,89.25
9,3.89166666666667
10,220.
751,17.
752,5.
753,1.41666666666667
754,0.0
1580,-0.317483795314819
1581,7.09543412394017
1582,0.150477178000521
1583,5.46920000535266
1584,0.246296207243868
1585,6.25903423260547
1586,0.344843270961888
1587,7.47390176070057
1588,0.435667077182502
1589,8.95897333393296
1590,0.409524864613688
1591,8.4953623808855
1592,0.383669167332774
1593,8.06562322962016
1594,0.476217200375409
1595,9.73620382194731
1596,0.537804385175507
1597,11.0523573115969
1598,0.487425367215019
1599,9.9635293280496
1600,0.486653760815216
1601,9.94770575833351
1602,0.583320303876522
1603,12.130600201662
1604,0.502551934434244
1605,10.2789269824238