Program Version,EnergyPlus-Darwin-64 8.1.0.009, YMD=2015.09.18 15:53
1,5,Environment Title[],Latitude[deg],Longitude[deg],Time Zone[],Elevation[m]
2,6,Day of Simulation[],Month[],Day of Month[],DST Indicator[1=yes 0=no],Hour[],StartMinute[],EndMinute[],DayType
3,3,Cumulative Day of Simulation[],Month[],Day of Month[],DST Indicator[1=yes 0=no],DayType  ! When Daily Report Variables Requested
4,2,Cumulative Days of Simulation[],Month[]  ! When Monthly Report Variables Requested
5,1,Cumulative Days of Simulation[] ! When Run Period Report Variables Requested
6,1,Environment,Site Outdoor Air Drybulb Temperature [C] !TimeStep
7,1,Environment,Site Outdoor Air Wetbulb Temperature [C] !TimeStep
8,1,Environment,Site Outdoor Air Relative Humidity [%] !TimeStep
9,1,Environment,Site Wind Speed [m/s] !TimeStep
10,1,Environment,Site Wind Direction [deg] !TimeStep
751,1,EMS,currentDayOfMonth [] !TimeStep
752,1,EMS,currentDayOfWeek [] !TimeStep
753,1,EMS,currentTimeOfDay [] !TimeStep
754,1,EMS,currentHoliday [] !TimeStep
827,1,BASEMENT,Zone Air Temperature [C] !TimeStep
860,1,CORE_BOTTOM,Zone Air Temperature [C] !TimeStep
893,1,CORE_MID,Zone Air Temperature [C] !TimeStep
926,1,CORE_TOP,Zone Air Temperature [C] !TimeStep
959,1,GROUNDFLOOR_PLENUM,Zone Air Temperature [C] !TimeStep
992,1,MIDFLOOR_PLENUM,Zone Air Temperature [C] !TimeStep
1025,1,PERIMETER_BOT_ZN_1,Zone Air Temperature [C] !TimeStep
1058,1,PERIMETER_BOT_ZN_2,Zone Air Temperature [C] !TimeStep
1091,1,PERIMETER_BOT_ZN_3,Zone Air Temperature [C] !TimeStep
1124,1,PERIMETER_BOT_ZN_4,Zone Air Temperature [C] !TimeStep
1157,1,PERIMETER_MID_ZN_1,Zone Air Temperature [C] !TimeStep
1190,1,PERIMETER_MID_ZN_2,Zone Air Temperature [C] !TimeStep
1223,1,PERIMETER_MID_ZN_3,Zone Air Temperature [C] !TimeStep
1256,1,PERIMETER_MID_ZN_4,Zone Air Temperature [C] !TimeStep
1289,1,PERIMETER_TOP_ZN_1,Zone Air Temperature [C] !TimeStep
1322,1,PERIMETER_TOP_ZN_2,Zone Air Temperature [C] !TimeStep
1355,1,PERIMETER_TOP_ZN_3,Zone Air Temperature [C] !TimeStep
1388,1,PERIMETER_TOP_ZN_4,Zone Air Temperature [C] !TimeStep
1421,1,TOPFLOOR_PLENUM,Zone Air Temperature [C] !TimeStep
1577,1,Whole Building,Facility Total Building Electric Demand Power [W] !TimeStep
1578,1,Whole Building,Facility Total HVAC Electric Demand Power [W] !TimeStep
1579,1,Whole Building,Facility Total Electric Demand Power [W] !TimeStep
1580,1,HTGSETP_SCH,Schedule Value [] !TimeStep
1581,1,HW-LOOP-TEMP-SCHEDULE,Schedule Value [] !TimeStep
1582,1,CW-LOOP-TEMP-SCHEDULE,Schedule Value [] !TimeStep
1583,1,CLGSETP_SCH,Schedule Value [] !TimeStep
1584,1,BLDG_LIGHT_SCH,Schedule Value [] !TimeStep
1821,1,COOLSYS1 CHILLER 1,Chiller Evaporator Outlet Temperature [C] !TimeStep
1835,1,COOLSYS1 CHILLER 2,Chiller Evaporator Outlet Temperature [C] !TimeStep
1869,1,HEATSYS1 BOILER,Boiler Outlet Temperature [C] !TimeStep
End of Data Dictionary
1,587017 587017 587017 TMY2 WMO#=587017,  41.99, -87.50,  -6.00, 172.00
2,1, 7,17, 1, 1, 0.00, 5.00,Thursday       
6,26.3
7,22.0325632933131
8,69.5
9,1.85
10,312.5
751,17.
752,5.
753,8.333333333333333E-002
754,0.0
1580,15.6
1581,82.2
1582,6.7
1583,27.
1584,0.7
827,24.7870778474848
860,24.686051190955
893,24.7165248294564
926,24.8632671593833
959,25.201711117235
992,25.182622359416
1025,24.8678273299806
1058,24.1319574755452
1091,24.8290741767414
1124,24.0055424816053
1157,24.8893637768886
1190,24.0482060526681
1223,24.8680117551927
1256,23.9072827062179
1289,25.0487272825123
1322,24.5099793227301
1355,25.003614870469
1388,24.1712496488158
1421,26.0025249980551
1577,611732.195552267
1578,2.22371418241139
1579,611734.41926645
1821,9.48246036468026
1835,9.48246036468026
1869,80.9516809615066
2,1, 7,17, 1, 1, 5.00,10.00,Thursday       
6,26.3
7,21.9564127543094
8,69.
9,2.2
10,305.
751,17.
752,5.
753,0.166666666666667
754,0.0
1580,15.6
1581,82.2
1582,6.7
1583,27.
1584,0.7
827,25.0441110975211
860,25.2620278018466
893,25.3140678638713
926,25.5618999147969
959,25.3471866460138
992,25.3324358810655
1025,25.540789340357
1058,24.9857713893824
1091,25.4511111992001
1124,24.9238812050599
1157,25.5891071096863
1190,24.9217310273804
1223,25.5115206971368
1256,24.8615717076506
1289,25.798802091712
1322,25.3888201060394
1355,25.7123114763855
1388,25.1654112185105
1421,26.2224882686563
1577,611732.195552267
1578,2.22159104123538
1579,611734.417143309
1821,9.48246036468026
1835,9.48246036468026
1869,80.9516809615066
2,1, 7,17, 1, 1,10.00,15.00,Thursday       
6,26.3
7,21.8800364743298
8,68.5
9,2.55
10,297.5
751,17.
752,5.
753,0.25
754,0.0
1580,15.6
1581,82.2
1582,6.7
1583,27.
1584,0.7
827,25.2306330918193
860,25.6420428658894
893,25.7059636418183
926,26.0076189046436
959,25.4485223923305
992,25.4363110256816
1025,25.9388504256608
1058,25.4704338453301
1091,25.8229338628593
1124,25.4387628046659
1157,25.9976119011271
1190,25.4121253301871
1223,25.8929445546252
1256,25.3889590082537
1289,26.2274751562166
1322,25.8802347879337
1355,26.1213982943981
1388,25.7095149430254
1421,26.3532545513548
1577,611732.195552267
1578,2.21998202837365
1579,611734.415534296
1821,9.48246036468026
1835,9.48246036468026
1869,80.9516809615066
2,1, 7,17, 1, 1,15.00,20.00,Thursday       
6,26.3
7,21.8034338045474
8,68.
9,2.9
10,290.
751,17.
752,5.
753,0.333333333333333
754,0.0
1580,15.6
1581,82.2
1582,6.7
1583,27.
1584,0.7
827,25.3614941340094
860,25.9300218450696
893,25.9996589615034
926,26.331574082029
959,25.5273467326015
992,25.5169538363956
1025,26.2225658330953
1058,25.8051319016552
1091,26.0935145043886
1124,25.788354545504
1157,26.2800784362082
1190,25.7486989044259
1223,26.1637609177577
1256,25.7438599052712
1289,26.5180832029038
1322,26.2097131973223
1355,26.4024474916061
1388,26.0690821750369
1421,26.4441227396435
1577,611732.195552267
1578,2.21885772101984
1579,611734.414409988
1821,9.48246036468026
1835,9.48246036468026
1869,80.9516809615066
2,1, 7,17, 1, 1,20.00,25.00,Thursday       
6,26.3
7,21.7266076345476
8,67.5
9,3.25
10,282.5
751,17.
752,5.
753,0.416666666666667
754,0.0
1580,15.6
1581,82.2
1582,6.7
1583,27.
1584,0.7
827,25.4669102887449
860,26.2234979558163
893,26.2966117220686
926,26.6583848317565
959,25.6077817731653
992,25.5991133792902
1025,26.4656359833455
1058,26.1090136880654
1091,26.3270876385525
1124,26.1075477888723
1157,26.5275352302446
1190,26.0602907923483
1223,26.4019195666192
1256,26.0720794198035
1289,26.786652414268
1322,26.5134160848392
1355,26.6631449035148
1388,26.3983312689348
1421,26.5287877483756
1577,611732.195552267
1578,2.21821628866576
1579,611734.413768556
1821,9.48246036468026
1835,9.48246036468026
1869,80.9516809615066
2,1, 7,17, 1, 1,25.00,30.00,Thursday       
6,26.3
7,21.6495574381746
8,67.
9,3.6
10,275.
751,17.
752,5.
753,0.5
754,0.0
1580,15.6
1581,82.2
1582,6.7
1583,27.
1584,0.7
827,25.5184029575328
860,26.3927276158235
893,26.4692286988717
926,26.8626199489705
959,25.662909719825
992,25.6559225599632
1025,26.5898270678565
1058,26.2713829299181
1091,26.4477045338209
1124,26.2814320214751
1157,26.6594452159994
1190,26.2283864385754
1223,26.527509366901
1256,26.253092882841
1289,26.9387378767652
1322,26.6879620428477
1355,26.8109042026672
1388,26.59084957345
1421,26.583767412557
1577,611732.195552267
1578,2.2179816582557
1579,611734.413533926
1821,9.48246036468026
1835,9.48246036468026
1869,80.9516809615066
2,1, 7,17, 1, 1,30.00,35.00,Thursday       
6,26.3
7,21.5722775639776
8,66.5
9,3.95
10,267.5
751,17.
752,5.
753,0.583333333333333
754,0.0
1580,15.6
1581,82.2
1582,6.7
1583,27.
1584,0.7
827,25.552805799107
860,26.5182225655974
893,26.5980655484725
926,27.0184816566387
959,25.7076967352206
992,25.7021280218117
1025,26.6811079387789
1058,26.39043824823
1091,26.5362865882001
1124,26.4093421060213
1157,26.756543162123
1190,26.3513706690756
1223,26.620286403593
1256,26.3859918937104
1289,27.0511368768816
1322,26.8180243936829
1355,26.920601705319
1388,26.7368695700697
1421,26.6312266004425
1577,611732.195552267
1578,2.21815766596541
1579,611734.413709933
1821,9.48246036468026
1835,9.48246036468026
1869,80.9516809615066
2,1, 7,17, 1, 1,35.00,40.00,Thursday       
6,26.3
7,21.4947702533315
8,66.
9,4.3
10,260.
751,17.
752,5.
753,0.666666666666667
754,0.0
1580,15.6
1581,82.2
1582,6.7
1583,27.
1584,0.7
827,25.5766756231817
860,26.6136492936083
893,26.6968062920094
926,27.1383689470896
959,25.7442320286063
992,25.7399339060257
1025,26.7524020036841
1058,26.4828246720284
1091,26.6053579001247
1124,26.5086236312255
1157,26.8324302368576
1190,26.4466488539543
1223,26.6929857008646
1256,26.4888499707452
1289,27.138634212764
1322,26.9190446667844
1355,27.0060922294786
1388,26.8501661228317
1421,26.6734051715489
1577,611732.195552267
1578,2.21872350190621
1579,611734.414275769
1821,9.48246036468026
1835,9.48246036468026
1869,80.9516809615066
2,1, 7,17, 1, 1,40.00,45.00,Thursday       
6,26.3
7,21.4170304451633
8,65.5
9,4.65
10,252.5
751,17.
752,5.
753,0.75
754,0.0
1580,15.6
1581,82.2
1582,6.7
1583,27.
1584,0.7
827,25.5940808945936
860,26.6886565334002
893,26.7751771172593
926,27.233377502766
959,25.7744183600597
992,25.7712578232416
1025,26.8111950533972
1058,26.5584597678234
1091,26.6626495947172
1124,26.5898149496873
1157,26.8951215153415
1190,26.5247176416143
1223,26.7508005785783
1256,26.5728718608409
1289,27.2105691637132
1322,27.0017115413971
1355,27.0735918964893
1388,26.9423668641953
1421,26.7116335988105
1577,611732.195552267
1578,2.21965999472837
1579,611734.415212262
1821,9.48246036468026
1835,9.48246036468026
1869,80.9516809615066
2,1, 7,17, 1, 1,45.00,50.00,Thursday       
6,26.3
7,21.3390615818893
8,65.
9,5.
10,245.
751,17.
752,5.
753,0.833333333333333
754,0.0
1580,15.6
1581,82.2
1582,6.7
1583,27.
1584,0.7
827,25.6074886390536
860,26.7496478249505
893,26.839655048445
926,27.311370872344
959,25.7997360026244
992,25.7976099161848
1025,26.8615351122603
1058,26.6227205595607
1091,26.7113436037453
1124,26.6586776408511
1157,26.9490127258334
1190,26.5913327205032
1223,26.8010349358372
1256,26.6442893993666
1289,27.272252406612
1322,27.0722102375054
1355,27.1319393874744
1388,27.0204790836671
1421,26.7467638695948
1577,611732.195552267
1578,2.22094945302688
1579,611734.41650172
1821,9.48246036468026
1835,9.48246036468026
1869,80.9516809615066
2,1, 7,17, 1, 1,50.00,55.00,Thursday       
6,26.3
7,21.2608619997169
8,64.5
9,5.35
10,237.5
751,17.
752,5.
753,0.916666666666667
754,0.0
1580,15.6
1581,82.2
1582,6.7
1583,27.
1584,0.7
827,25.6183846251548
860,26.8008028076491
893,26.8944716764711
926,27.3776128011458
959,25.8213203669062
992,25.8201591505362
1025,26.9059375033595
1058,26.6790072482144
1091,26.7540785901256
1124,26.7188866047401
1157,26.9968178222014
1190,26.6500858831125
1223,26.8458721202027
1256,26.7070317873718
1289,27.3269557689198
1322,27.1344303891063
1355,27.1839948033917
1388,27.0889878709893
1421,26.7793235540493
1577,611732.195552267
1578,2.22257552521297
1579,611734.418127792
1821,9.48246036468026
1835,9.48246036468026
1869,80.9516809615066
2,1, 7,17, 1, 1,55.00,60.00,Thursday       
6,26.3
7,21.1824262379398
8,64.
9,5.7
10,230.
751,17.
752,5.
753,1.
754,0.0
1580,15.6
1581,82.2
1582,6.7
1583,27.
1584,0.7
827,25.6276663574637
860,26.8448614489633
893,26.9423976735696
926,27.4355668485613
959,25.8400030891861
992,25.8397679577572
1025,26.9457633831548
1058,26.7291392104426
1091,26.7923198410945
1124,26.7724095700735
1157,27.040025542697
1190,26.7029095940041
1223,26.8865519668875
1256,26.7632248664374
1289,27.3764904108975
1322,27.1905029696895
1355,27.2313036295083
1388,27.1503804933977
1421,26.8095894321357
1577,611732.195552267
1578,2.22452307537167
1579,611734.420075343
1821,9.48246036468026
1835,9.48246036468026
1869,80.9516809615066
2,1, 7,17, 1, 2, 0.00, 5.00,Thursday       
6,26.275
7,21.1602515110533
8,64.
9,5.7
10,230.
751,17.
752,5.
753,1.08333333333333
754,0.0
1580,15.6
1581,82.2
1582,6.7
1583,27.
1584,0.7
827,25.6358708394703
860,26.8835311055002
893,26.985138093216
926,27.4873439308872
959,25.8562748970189
992,25.8569463953747
1025,26.980303493736
1058,26.7728195034508
1091,26.825538899376
1124,26.8188666323568
1157,27.0779123983117
1190,26.7494465670656
1223,26.9223909448056
1256,26.8124518961391
1289,27.4202952961872
1322,27.2401400243779
1355,27.2733086299995
1388,27.2044326632195
1421,26.836077450761
1577,611732.195552267
1578,2.2267780730017
1579,611734.42233034
1821,9.48246036468026
1835,9.48246036468026
1869,80.9516809615066
2,1, 7,17, 1, 2, 5.00,10.00,Thursday       
6,26.25
7,21.1380846673307
8,64.
9,5.7
10,230.
751,17.
752,5.
753,1.16666666666667
754,0.0
1580,15.6
1581,82.2
1582,6.7
1583,27.
1584,0.7
827,25.6433476904645
860,26.9181522921103
893,27.024046996507
926,27.5346015849462
959,25.8706661832983
992,25.8722440253742
1025,27.0110392469178
1058,26.8117745579156
1091,26.8551484647684
1124,26.8601564361272
1157,27.1120008412669
1190,26.7914682458395
1223,26.9547831241762
1256,26.8566540347125
1289,27.460023364426
1322,27.2851892979479
1355,27.3115620274813
1388,27.2532210480381
1421,26.8596081293101
1577,611732.195552267
1578,2.22690334549533
1579,611734.422455613
1821,9.48246036468026
1835,9.48246036468026
1869,80.9516809615066
2,1, 7,17, 1, 2,10.00,15.00,Thursday       
6,26.225
7,21.1159180395504
8,64.
9,5.7
10,230.
751,17.
752,5.
753,1.25
754,0.0
1580,15.6
1581,82.2
1582,6.7
1583,27.
1584,0.7
827,25.6487612032929
860,26.9425644751429
893,27.0519516833279
926,26.7308054509974
959,25.8806761246735
992,25.8829744175146
1025,27.0328356047326
1058,26.8394344519919
1091,26.8761494613601
1124,26.8893891508696
1157,27.1364546916788
1190,26.8216963758164
1223,26.9780749077303
1256,26.8883001233735
1289,26.2194966485178
1322,25.1205725365107
1355,26.2292706002206
1388,24.6710770293698
1421,26.9091989370411
1577,611732.195552267
1578,148588.549264011
1579,760320.744816278
1821,6.7
1835,6.7
1869,80.9516809615066
2,1, 7,17, 1, 2,15.00,20.00,Thursday       
6,26.2
7,21.0937457242276
8,64.
9,5.7
10,230.
751,17.
752,5.
753,1.33333333333333
754,0.0
1580,15.6
1581,82.2
1582,6.7
1583,27.
1584,0.7
827,25.6554466691959
860,26.972180531161
893,27.0862524275801
926,25.9777374805937
959,25.8927364475291
992,25.8959789078899
1025,27.0588225205591
1058,26.8723692419979
1091,26.9012619086684
1124,26.92411426385
1157,27.1659386870908
1190,26.8581338915201
1223,27.0062652610478
1256,26.926316945326
1289,25.3414809277824
1322,23.9414374276283
1355,25.4269244091791
1388,23.4073295511871
1421,26.7234800165056
1577,611732.195552267
1578,146479.54105951
1579,758211.736611777
1821,6.7
1835,6.7
1869,80.9516809615066
2,1, 7,17, 1, 2,20.00,25.00,Thursday       
6,26.175
7,21.0715714042193
8,64.
9,5.7
10,230.
751,17.
752,5.
753,1.41666666666667
754,0.0
1580,15.6
1581,82.2
1582,6.7
1583,27.
1584,0.7
827,25.6618301229342
860,26.9996257901402
893,27.1185816256511
926,25.5582851969386
959,25.903835287908
992,25.9080550195212
1025,27.0826754417743
1058,26.9025728780557
1091,26.9243614446928
1124,26.9558717088465
1157,27.193389130496
1190,26.892068823495
1223,27.0325933469137
1256,26.9615800241541
1289,24.9956656045287
1322,23.5739947629203
1355,25.0962497045979
1388,23.0447963981453
1421,26.482580416826
1577,611732.195552267
1578,145070.422743499
1579,756802.618295766
1821,6.7
1835,6.7
1869,80.9516809615066
2,1, 7,17, 1, 2,25.00,30.00,Thursday       
6,26.15
7,21.0494115398451
8,64.
9,5.7
10,230.
751,17.
752,5.
753,1.5
754,0.0
1580,15.6
1581,82.2
1582,6.7
1583,27.
1584,0.7
827,25.6693352665943
860,27.0308637426175
893,27.1560226458221
926,25.3021649493364
959,25.9164245961191
992,25.9218798280856
1025,27.1092820242818
1058,26.9362026071151
1091,26.9502203440742
1124,26.991126090238
1157,27.2245169597526
1190,26.9305229291448
1223,27.0625694119431
1256,27.001378278238
1289,24.8210698541098
1322,23.3880099531145
1355,24.9279810333143
1388,22.8575675513245
1421,26.2762816796731
1577,611732.195552267
1578,144230.587119712
1579,755962.782671979
1821,6.7
1835,6.7
1869,80.9516809615066
2,1, 7,17, 1, 2,30.00,35.00,Thursday       
6,26.125
7,21.0272413818017
8,64.
9,5.7
10,230.
751,17.
752,5.
753,1.58333333333333
754,0.0
1580,15.6
1581,82.2
1582,6.7
1583,27.
1584,0.7
827,25.6752550432125
860,27.0545439774128
893,27.1849588522116
926,25.1975051618312
959,25.9259392443666
992,25.9324516163421
1025,27.1292013309259
1058,26.9613530922683
1091,26.9696258795847
1124,27.0174100232192
1157,27.2482589100992
1190,26.9598520328916
1223,27.0854952879047
1256,27.0316058993038
1289,24.7477743234184
1322,23.3001470330555
1355,24.8590530663051
1388,22.7649389479997
1421,26.1710875771834
1577,611732.195552267
1578,143774.181294457
1579,755506.376846724
1821,6.7
1835,6.7
1869,80.9516809615066
2,1, 7,17, 1, 2,35.00,40.00,Thursday       
6,26.1
7,21.0050690061531
8,64.
9,5.7
10,230.
751,17.
752,5.
753,1.66666666666667
754,0.0
1580,15.6
1581,82.2
1582,6.7
1583,27.
1584,0.7
827,25.6810307981659
860,27.0769253310189
893,27.2127405539448
926,25.1324183030474
959,25.9349344644173
992,25.9425419758697
1025,27.1476435846519
1058,26.9846005756964
1091,26.9876522010301
1124,27.0416363334985
1157,27.2706217743657
1190,26.9874551931298
1223,27.1071580660599
1256,27.0599544570553
1289,24.695673347083
1322,23.2332553213789
1355,24.8110491006919
1388,22.6930980562828
1421,26.0930116638199
1577,611732.195552267
1578,143495.463673641
1579,755227.659225908
1821,6.7
1835,6.7
1869,80.9516809615066
2,1, 7,17, 1, 2,40.00,45.00,Thursday       
6,26.075
7,20.9829113884826
8,64.
9,5.7
10,230.
751,17.
752,5.
753,1.75
754,0.0
1580,15.6
1581,82.2
1582,6.7
1583,27.
1584,0.7
827,25.6854266197509
860,27.0934111670432
893,27.233516787443
926,25.7769127253195
959,25.941573215033
992,25.9500652323215
1025,27.1610754367247
1058,27.001521405492
1091,27.0008045792015
1124,27.0592250398341
1157,27.287181220496
1190,27.0078951232998
1223,27.1232259042913
1256,27.0808799466149
1289,25.6328333714054
1322,24.6811275658627
1355,25.6455125309859
1388,24.3458130233381
1421,26.3149618399849
1577,611732.195552267
1578,2.22086243544128
1579,611734.416414703
1821,9.61749754301687
1835,9.61749754301687
1869,80.9516809615066
2,1, 7,17, 1, 2,45.00,50.00,Thursday       
6,26.05
7,20.9607397663699
8,64.
9,5.7
10,230.
751,17.
752,5.
753,1.83333333333333
754,0.0
1580,15.6
1581,82.2
1582,6.7
1583,27.
1584,0.7
827,25.6910068855356
860,27.1139124029327
893,27.2596475480656
926,26.3271676750418
959,25.9498584837461
992,25.9595143409525
1025,27.1773100960398
1058,27.0219324213699
1091,27.0167652162223
1124,27.0803909721212
1157,27.3074926973862
1190,27.0329312493998
1223,27.1430024806998
1256,27.1064428977826
1289,26.3115103706672
1322,25.6513732820736
1355,26.2603596852756
1388,25.4310541501814
1421,26.4838927121305
1577,611732.195552267
1578,2.22166213137157
1579,611734.417214399
1821,9.61749754301687
1835,9.61749754301687
1869,80.9516809615066
2,1, 7,17, 1, 2,50.00,55.00,Thursday       
6,26.025
7,20.9385691775906
8,64.
9,5.7
10,230.
751,17.
752,5.
753,1.91666666666667
754,0.0
1580,15.6
1581,82.2
1582,6.7
1583,27.
1584,0.7
827,25.6964972542121
860,27.133499212717
893,27.284969290046
926,26.6913516339909
959,25.9578207297384
992,25.9686771617766
1025,27.1924608377107
1058,27.0409548263833
1091,27.0317098483999
1124,27.1000619847809
1157,27.3267932667214
1190,27.0567028961143
1223,27.1618467179841
1256,27.1306389572305
1289,26.6936612367032
1322,26.1701425081009
1355,26.61219020873
1388,26.0044373782891
1421,26.575717704233
1577,611732.195552267
1578,2.22282241177501
1579,611734.418374679
1821,9.61749754301687
1835,9.61749754301687
1869,80.9516809615066
2,1, 7,17, 1, 2,55.00,60.00,Thursday       
6,26.
7,20.9164141457033
8,64.
9,5.7
10,230.
751,17.
752,5.
753,2.
754,0.0
1580,15.6
1581,82.2
1582,6.7
1583,27.
1584,0.7
827,25.7019107518238
860,27.1522713796084
893,27.3095703625729
926,26.9754091527971
959,25.9655004519083
992,25.9775926230228
1025,27.2066108136786
1058,27.0586942570775
1091,27.0457187030788
1124,27.1183522783314
1157,27.345160282512
1190,27.0793038514235
1223,27.1798313622228
1256,27.1535713713265
1289,26.9524488378848
1322,26.4987828596499
1355,26.8557197193678
1388,26.3627912074002
1421,26.6338185675725
1577,611732.195552267
1578,2.22432636519794
1579,611734.419878632
1821,9.61749754301687
1835,9.61749754301687
1869,80.9516809615066
2,1, 7,17, 1, 3, 0.00, 5.00,Thursday       
6,25.975
7,20.9073238148361
8,64.0833333333333
9,5.7
10,230.
751,17.
752,5.
753,2.08333333333333
754,0.0
1580,15.6
1581,82.2
1582,6.7
1583,27.
1584,0.7
827,25.7084473329918
860,27.1743350866763
893,27.3388795919782
926,27.2560674389749
959,25.9745957755328
992,25.9882381568876
1025,27.2227039927534
1058,27.0788361968747
1091,27.0617216383349
1124,27.1390555950493
1157,27.3664721377735
1190,27.1054968659035
1223,27.2007704599305
1256,27.1800658648919
1289,27.1837816963204
1322,26.7946019823501
1355,27.0725840766984
1388,26.6814450149368
1421,26.6832087220667
1577,611732.195552267
1578,2.22618309067972
1579,611734.421735358
1821,9.61749754301687
1835,9.61749754301687
1869,80.9516809615066
2,1, 7,17, 1, 3, 5.00,10.00,Thursday       
6,25.95
7,20.8982190452715
8,64.1666666666667
9,5.7
10,230.
751,17.
752,5.
753,2.16666666666667
754,0.0
1580,15.6
1581,82.2
1582,6.7
1583,27.
1584,0.7
827,25.7137261470583
860,27.1916041097514
893,27.3621585333087
926,27.4118942484691
959,25.981773456323
992,25.9967265911668
1025,27.2349521058965
1058,27.0941485124804
1091,27.0739473251724
1124,27.1547393996404
1157,27.3830653279704
1190,27.125876608405
1223,27.2171153632398
1256,27.2006094334375
1289,27.3012863951575
1322,26.9590915444281
1355,27.1833335228897
1388,26.8619480534008
1421,26.7128505483842
1577,611732.195552267
1578,2.22832744789773
1579,611734.423879715
1821,9.61749754301687
1835,9.61749754301687
1869,80.9516809615066
2,1, 7,17, 1, 3,10.00,15.00,Thursday       
6,25.925
7,20.8890848943025
8,64.25
9,5.7
10,230.
751,17.
752,5.
753,2.25
754,0.0
1580,15.6
1581,82.2
1582,6.7
1583,27.
1584,0.7
827,25.7189569460897
860,27.2083084860268
893,27.3849402614306
926,27.5262640810911
959,25.9887734676752
992,26.0050691650358
1025,27.2464818412567
1058,27.1085472180491
1091,27.0854972384058
1124,27.169444380777
1157,27.3989841399927
1190,27.1454133787202
1223,27.2328348550563
1256,27.2202494974302
1289,27.3837310748774
1322,27.0746241240078
1355,27.2614318102088
1388,26.9905326995603
1421,26.7373510132593
1577,611732.195552267
1578,2.2285835429934
1579,611734.42413581
1821,9.61749754301687
1835,9.61749754301687
1869,80.9516809615066
2,1, 7,17, 1, 3,15.00,20.00,Thursday       
6,25.9
7,20.8799308349861
8,64.3333333333333
9,5.7
10,230.
751,17.
752,5.
753,2.33333333333333
754,0.0
1580,15.6
1581,82.2
1582,6.7
1583,27.
1584,0.7
827,25.7229890817945
860,27.2208728994584
893,27.4022659311984
926,26.7479769721917
959,25.9940793462998
992,26.0114470922865
1025,27.2549741072427
1058,27.1191458556438
1091,27.0940288187652
1124,27.1802359582382
1157,27.4109347079662
1190,27.1600751157891
1223,27.2446553404203
1256,27.2349489163304
1289,26.1579035243668
1322,24.9466404390617
1355,26.1917838744618
1388,24.455580562106
1421,26.7944276277526
1577,611732.195552267
1578,143105.788320243
1579,754837.98387251
1821,6.7
1835,6.7
1869,80.9516809615066
2,1, 7,17, 1, 3,20.00,25.00,Thursday       
6,25.875
7,20.8707575089379
8,64.4166666666667
9,5.7
10,230.
751,17.
752,5.
753,2.41666666666667
754,0.0
1580,15.6
1581,82.2
1582,6.7
1583,27.
1584,0.7
827,25.7281505105527
860,27.2367241480146
893,27.4243019331973
926,26.0293502941942
959,26.0008154442328
992,26.0195810953811
1025,27.2653638875514
1058,27.1320928439173
1091,27.104509644772
1124,27.1933856770995
1157,27.4257810819256
1190,27.1782668590702
1223,27.2593833555324
1256,27.2531487919206
1289,25.3119938802473
1322,23.8306756587078
1355,25.4171093338525
1388,23.2675432296361
1421,26.6203636509767
1577,611732.195552267
1578,142745.993761596
1579,754478.189313863
1821,6.7
1835,6.7
1869,80.9516809615066
2,1, 7,17, 1, 3,25.00,30.00,Thursday       
6,25.85
7,20.8615548025184
8,64.5
9,5.7
10,230.
751,17.
752,5.
753,2.5
754,0.0
1580,15.6
1581,82.2
1582,6.7
1583,27.
1584,0.7
827,25.7332768541341
860,27.252136874319
893,27.4459430856517
926,25.6356155753083
959,26.0074225203051
992,26.0276142693305
1025,27.2751742678312
1058,27.1443039013995
1091,27.1144464660847
1124,27.2057484396999
1157,27.4400744621094
1190,27.1957657926433
1223,27.2735994712653
1256,27.2706094081146
1289,24.9827839524872
1322,23.4901711160507
1355,25.1017540676442
1388,22.9351070576164
1421,26.3924953913397
1577,611732.195552267
1578,142523.86924531
1579,754256.064797577
1821,6.7
1835,6.7
1869,80.9516809615066
2,1, 7,17, 1, 3,30.00,35.00,Thursday       
6,25.825
7,20.8523316464572
8,64.5833333333333
9,5.7
10,230.
751,17.
752,5.
753,2.58333333333333
754,0.0
1580,15.6
1581,82.2
1582,6.7
1583,27.
1584,0.7
827,25.7395064147263
860,27.2704929601404
893,27.4719705411422
926,25.3947925758413
959,26.015362382587
992,26.0373256806962
1025,27.286458323433
1058,27.1583295963503
1091,27.1259310447695
1124,27.219901136643
1157,27.4568484692246
1190,27.2162776844733
1223,27.2903355528433
1256,27.2910223064537
1289,24.8153514681831
1322,23.3162746933619
1355,24.9402192599369
1388,22.7612014108721
1421,26.1988118217735
1577,611732.195552267
1578,142398.421270074
1579,754130.616822341
1821,6.7
1835,6.7
1869,80.9516809615066
2,1, 7,17, 1, 3,35.00,40.00,Thursday       
6,25.8
7,20.8430844698867
8,64.6666666666667
9,5.7
10,230.
751,17.
752,5.
753,2.66666666666667
754,0.0
1580,15.6
1581,82.2
1582,6.7
1583,27.
1584,0.7
827,25.7445691069958
860,27.285068245366
893,27.4928540180443
926,25.2956769993664
959,26.0217252885097
992,26.045171263919
1025,27.2951570552888
1058,27.1691334813182
1091,27.1348208304583
1124,27.2307622556546
1157,27.4700702832585
1190,27.2324363917802
1223,27.3035568335256
1256,27.307057318796
1289,24.7447956284416
1322,23.2351032036261
1355,24.8734263382911
1388,22.676439275364
1421,26.0977306405054
1577,611732.195552267
1578,142291.168632699
1579,754023.364184967
1821,6.7
1835,6.7
1869,80.9516809615066
2,1, 7,17, 1, 3,40.00,45.00,Thursday       
6,25.775
7,20.833822572007
8,64.75
9,5.7
10,230.
751,17.
752,5.
753,2.75
754,0.0
1580,15.6
1581,82.2
1582,6.7
1583,27.
1584,0.7
827,25.7496084832794
860,27.2993246810299
893,27.5134483363099
926,25.23337962662
959,26.0279988106867
992,26.0529515942475
1025,27.303430101196
1058,27.1794006583213
1091,27.1433082648454
1124,27.2410521980219
1157,27.4828766278768
1190,27.2480765529973
1223,27.3163912725642
1256,27.3225428246443
1289,24.6940003621732
1322,23.1727438481107
1355,24.8262116626998
1388,22.6101158171437
1421,26.023071275901
1577,611732.195552267
1578,142202.510846311
1579,753934.706398579
1821,6.7
1835,6.7
1869,80.9516809615066
2,1, 7,17, 1, 3,45.00,50.00,Thursday       
6,25.75
7,20.8245360497482
8,64.8333333333333
9,5.7
10,230.
751,17.
752,5.
753,2.83333333333333
754,0.0
1580,15.6
1581,82.2
1582,6.7
1583,27.
1584,0.7
827,25.7535080025131
860,27.3101597945127
893,26.8131012329748
926,25.8841128831697
959,26.0328038357123
992,26.2070186852458
1025,27.309584858276
1058,27.1870370751215
1091,27.1496415798845
1124,27.2486818546729
1157,26.2476125105774
1190,25.0149504720457
1223,26.2900417012923
1256,24.7912947371135
1289,25.6312547524871
1322,24.6151824101637
1355,25.6616172012261
1388,24.2531139298636
1421,26.2290258351158
1577,611732.195552267
1578,299052.786670608
1579,910784.982222875
1821,6.7
1835,6.7
1869,80.9516809615066
2,1, 7,17, 1, 3,50.00,55.00,Thursday       
6,25.725
7,20.8152196143412
8,64.9166666666667
9,5.7
10,230.
751,17.
752,5.
753,2.91666666666667
754,0.0
1580,15.6
1581,82.2
1582,6.7
1583,27.
1584,0.7
827,25.7585131579548
860,27.3239306641007
893,26.1457957902303
926,26.4387781030777
959,26.038942632862
992,26.1133775045442
1025,27.3171744347608
1058,27.1964419384061
1091,27.1574846105615
1124,27.2580542105851
1157,25.3741103902499
1190,23.8121987580029
1223,25.5222261250697
1256,23.5239271960725
1289,26.307618646815
1322,25.5831659454406
1355,26.2746794927682
1388,25.3339990564864
1421,26.384959763392
1577,611732.195552267
1578,304720.48691458
1579,916452.682466847
1821,6.7
1835,6.7
1869,80.9516809615066
2,1, 7,17, 1, 3,55.00,60.00,Thursday       
6,25.7
7,20.8058829473051
8,65.
9,5.7
10,230.
751,17.
752,5.
753,3.
754,0.0
1580,15.6
1581,82.2
1582,6.7
1583,27.
1584,0.7
827,25.7634993872525
860,27.3374427650229
893,25.7520199849367
926,26.8052148904719
959,26.0450136879121
992,25.9254413775522
1025,27.3244112389967
1058,27.2054032654389
1091,27.1649943845956
1124,27.2669557851668
1157,25.0179982533315
1190,23.4275093070219
1223,25.1880527829749
1256,23.1386914040649
1289,26.6871076936598
1322,26.1022875984652
1355,26.623431930315
1388,25.9075807626116
1421,26.4704023779646
1577,611732.195552267
1578,309259.561782612
1579,920991.757334879
1821,6.7
1835,6.7
1869,80.9516809615066
2,1, 7,17, 1, 4, 0.00, 5.00,Thursday       
6,25.6666666666667
7,20.7763361938564
8,65.
9,5.7
10,230.833333333333
751,17.
752,5.
753,3.08333333333333
754,0.0
1580,15.6
1581,82.2
1582,6.7
1583,27.
1584,0.7
827,25.7684684093888
860,27.3507151199123
893,25.5366880351611
926,27.0884880563
959,26.0509888763896
992,25.7704655341796
1025,27.3310738071055
1058,27.213700717284
1091,27.1719453129556
1124,27.2751699667395
1157,24.8553475427117
1190,23.250949846174
1223,25.0330488267978
1256,22.9591785087407
1289,26.9377078185831
1322,26.4285099797752
1355,26.8580551801819
1388,26.2646710439499
1421,26.5237179286794
1577,623954.393354465
1578,312053.116003913
1579,936007.509358378
1821,6.7
1835,6.7
1869,80.9516809615066
2,1, 7,17, 1, 4, 5.00,10.00,Thursday       
6,25.6333333333333
7,20.7467944122534
8,65.
9,5.7
10,231.666666666667
751,17.
752,5.
753,3.16666666666667
754,0.0
1580,15.6
1581,82.2
1582,6.7
1583,27.
1584,0.7
827,25.7745264999869
860,27.366687859408
893,25.3883827403953
926,27.3664717154493
959,26.0581906898628
992,25.6260508188134
1025,27.3385078632967
1058,27.2230178366594
1091,27.1797516824046
1124,27.2843567809674
1157,24.7449090577417
1190,23.1243576848627
1223,24.9294045056959
1256,22.8280928670554
1289,27.163284757462
1322,26.7179879084492
1355,27.0689803270448
1388,26.5773647347568
1421,26.5688747306423
1577,623954.393354465
1578,315986.047032816
1579,939940.440387281
1821,6.7
1835,6.7