Program Version,EnergyPlus-Darwin-64 8.1.0.009, YMD=2015.09.30 16:44
1,5,Environment Title[],Latitude[deg],Longitude[deg],Time Zone[],Elevation[m]
2,6,Day of Simulation[],Month[],Day of Month[],DST Indicator[1=yes 0=no],Hour[],StartMinute[],EndMinute[],DayType
3,3,Cumulative Day of Simulation[],Month[],Day of Month[],DST Indicator[1=yes 0=no],DayType  ! When Daily Report Variables Requested
4,2,Cumulative Days of Simulation[],Month[]  ! When Monthly Report Variables Requested
5,1,Cumulative Days of Simulation[] ! When Run Period Report Variables Requested
6,1,Environment,Site Outdoor Air Drybulb Temperature [C] !TimeStep
7,1,Environment,Site Outdoor Air Wetbulb Temperature [C] !TimeStep
8,1,Environment,Site Outdoor Air Relative Humidity [%] !TimeStep
9,1,Environment,Site Wind Speed [m/s] !TimeStep
10,1,Environment,Site Wind Direction [deg] !TimeStep
751,1,EMS,currentDayOfMonth [] !TimeStep
752,1,EMS,currentDayOfWeek [] !TimeStep
753,1,EMS,currentTimeOfDay [] !TimeStep
754,1,EMS,currentHoliday [] !TimeStep
827,1,BASEMENT,Zone Air Temperature [C] !TimeStep
860,1,CORE_BOTTOM,Zone Air Temperature [C] !TimeStep
893,1,CORE_MID,Zone Air Temperature [C] !TimeStep
926,1,CORE_TOP,Zone Air Temperature [C] !TimeStep
959,1,GROUNDFLOOR_PLENUM,Zone Air Temperature [C] !TimeStep
992,1,MIDFLOOR_PLENUM,Zone Air Temperature [C] !TimeStep
1025,1,PERIMETER_BOT_ZN_1,Zone Air Temperature [C] !TimeStep
1058,1,PERIMETER_BOT_ZN_2,Zone Air Temperature [C] !TimeStep
1091,1,PERIMETER_BOT_ZN_3,Zone Air Temperature [C] !TimeStep
1124,1,PERIMETER_BOT_ZN_4,Zone Air Temperature [C] !TimeStep
1157,1,PERIMETER_MID_ZN_1,Zone Air Temperature [C] !TimeStep
1190,1,PERIMETER_MID_ZN_2,Zone Air Temperature [C] !TimeStep
1223,1,PERIMETER_MID_ZN_3,Zone Air Temperature [C] !TimeStep
1256,1,PERIMETER_MID_ZN_4,Zone Air Temperature [C] !TimeStep
1289,1,PERIMETER_TOP_ZN_1,Zone Air Temperature [C] !TimeStep
1322,1,PERIMETER_TOP_ZN_2,Zone Air Temperature [C] !TimeStep
1355,1,PERIMETER_TOP_ZN_3,Zone Air Temperature [C] !TimeStep
1388,1,PERIMETER_TOP_ZN_4,Zone Air Temperature [C] !TimeStep
1421,1,TOPFLOOR_PLENUM,Zone Air Temperature [C] !TimeStep
1577,1,Whole Building,Facility Total Building Electric Demand Power [W] !TimeStep
1578,1,Whole Building,Facility Total HVAC Electric Demand Power [W] !TimeStep
1579,1,Whole Building,Facility Total Electric Demand Power [W] !TimeStep
1580,1,HTGSETP_SCH,Schedule Value [] !TimeStep
1581,1,HW-LOOP-TEMP-SCHEDULE,Schedule Value [] !TimeStep
1582,1,CW-LOOP-TEMP-SCHEDULE,Schedule Value [] !TimeStep
1583,1,CLGSETP_SCH,Schedule Value [] !TimeStep
1584,1,BLDG_LIGHT_SCH,Schedule Value [] !TimeStep
1821,1,COOLSYS1 CHILLER 1,Chiller Evaporator Outlet Temperature [C] !TimeStep
1835,1,COOLSYS1 CHILLER 2,Chiller Evaporator Outlet Temperature [C] !TimeStep
1869,1,HEATSYS1 BOILER,Boiler Outlet Temperature [C] !TimeStep
End of Data Dictionary
1,587017 587017 587017 TMY2 WMO#=587017,  41.99, -87.50,  -6.00, 172.00
2,1, 7,10, 1, 1, 0.00, 5.00,Thursday       
6,22.975
7,18.9899527591517
8,69.1666666666667
9,4.64166666666667
10,29.1666666666667
751,10.
752,5.
753,8.333333333333333E-002
754,0.0
1580,15.6
1581,82.2
1582,6.7
1583,27.
1584,5.000000000000000E-002
827,24.6897192273581
860,25.093039966972
893,25.1282996795532
926,24.5693863562628
959,24.9264733957349
992,24.85125076206
1025,24.8195738019416
1058,23.8687152538516
1091,24.8541116295651
1124,24.116379849048
1157,24.6998451303143
1190,23.559649978541
1223,24.7889724042317
1256,23.9253300533586
1289,24.2645548661138
1322,22.9896100985543
1355,24.3212286913391
1388,23.0567733722944
1421,24.4378191756936
1577,287767.469609045
1578,2.23645466388913
1579,287769.706063708
1821,9.13706257812661
1835,9.13706257812661
1869,77.5395052737174
2,1, 7,10, 1, 1, 5.00,10.00,Thursday       
6,22.95
7,18.9904076991298
8,69.3333333333333
9,4.68333333333333
10,28.3333333333333
751,10.
752,5.
753,0.166666666666667
754,0.0
1580,15.6
1581,82.2
1582,6.7
1583,27.
1584,5.000000000000000E-002
827,24.8620127285162
860,25.3690444896302
893,25.4123807963105
926,25.0454661194954
959,25.0337287541723
992,24.9636377136607
1025,25.0719636409767
1058,24.2739694605884
1091,25.0759139207336
1124,24.559813774659
1157,24.9666997401243
1190,23.9662906337312
1223,25.0174023246759
1256,24.3776454883672
1289,24.7153766446655
1322,23.69206821163
1355,24.730199341109
1388,23.8859859147227
1421,24.4951195704467
1577,287767.469609045
1578,2.23439797382852
1579,287769.704007018
1821,9.13706257812661
1835,9.13706257812661
1869,77.5395052737174
2,1, 7,10, 1, 1,10.00,15.00,Thursday       
6,22.925
7,18.9908053297424
8,69.5
9,4.725
10,27.5
751,10.
752,5.
753,0.25
754,0.0
1580,15.6
1581,82.2
1582,6.7
1583,27.
1584,5.000000000000000E-002
827,24.9816320918197
860,25.5781894323802
893,25.6231249738822
926,25.3504300229257
959,25.1070527351077
992,25.0402411330304
1025,25.2290737195156
1058,24.5221990645445
1091,25.2145983190676
1124,24.8295689803027
1157,25.1306351833991
1190,24.2148617685327
1223,25.158270198359
1256,24.6495837356466
1289,24.9588228024547
1322,24.0629605947797
1355,24.9525437543349
1388,24.3153295145792
1421,24.5208966058659
1577,287767.469609045
1578,2.23285838622965
1579,287769.702467431
1821,9.13706257812661
1835,9.13706257812661
1869,77.5395052737174
2,1, 7,10, 1, 1,15.00,20.00,Thursday       
6,22.9
7,18.9911603379704
8,69.6666666666667
9,4.76666666666667
10,26.6666666666667
751,10.
752,5.
753,0.333333333333333
754,0.0
1580,15.6
1581,82.2
1582,6.7
1583,27.
1584,5.000000000000000E-002
827,25.0769197519957
860,25.7824785238699
893,25.8273086660236
926,25.6179700771705
959,25.1721996183509
992,25.1080457596454
1025,25.3612698901712
1058,24.7276316696563
1091,25.3317092864
1124,25.0503106469433
1157,25.265180481829
1190,24.4221426194241
1223,25.2755362465394
1256,24.8687214068953
1289,25.1404046147823
1322,24.335008083526
1355,25.1187397506811
1388,24.6241207262693
1421,24.5367933188758
1577,287767.469609045
1578,2.23183186601529
1579,287769.701440911
1821,9.13706257812661
1835,9.13706257812661
1869,77.5395052737174
2,1, 7,10, 1, 1,20.00,25.00,Thursday       
6,22.875
7,18.9914700896942
8,69.8333333333333
9,4.80833333333333
10,25.8333333333333
751,10.
752,5.
753,0.416666666666667
754,0.0
1580,15.6
1581,82.2
1582,6.7
1583,27.
1584,5.000000000000000E-002
827,25.1222506985379
860,25.8946826616921
893,25.9411731922852
926,25.7785625327066
959,25.2109823601011
992,25.1483516684247
1025,25.4395364072745
1058,24.8468909481158
1091,25.4012724357167
1124,25.1772593261583
1157,25.3439409573472
1190,24.5455803520253
1223,25.343226691061
1256,24.9924001515662
1289,25.231836226925
1322,24.4772898549214
1355,25.2015645814713
1388,24.7812400237213
1421,24.5444098393986
1577,287767.469609045
1578,2.2312388734035
1579,287769.700847918
1821,9.13706257812661
1835,9.13706257812661
1869,77.5395052737174
2,1, 7,10, 1, 1,25.00,30.00,Thursday       
6,22.85
7,18.9917274732965
8,70.
9,4.85
10,25.
751,10.
752,5.
753,0.5
754,0.0
1580,15.6
1581,82.2
1582,6.7
1583,27.
1584,5.000000000000000E-002
827,25.1512168626939
860,25.9751429551164
893,26.0234291740902
926,25.895002477187
959,25.2424044331768
992,25.1809815403384
1025,25.4968406600122
1058,24.9369140751281
1091,25.4522142819899
1124,25.2769532831479
1157,25.4045549815465
1190,24.6402199598312
1223,25.3955462450372
1256,25.092992478915
1289,25.2979319914522
1322,24.5874731382461
1355,25.2615841242156
1388,24.8975462849465
1421,24.5505965683699
1577,287767.469609045
1578,2.23108163328534
1579,287769.700690678
1821,9.13706257812661
1835,9.13706257812661
1869,77.5395052737174
2,1, 7,10, 1, 1,30.00,35.00,Thursday       
6,22.825
7,18.9919368068365
8,70.1666666666667
9,4.89166666666667
10,24.1666666666667
751,10.
752,5.
753,0.583333333333333
754,0.0
1580,15.6
1581,82.2
1582,6.7
1583,27.
1584,5.000000000000000E-002
827,25.1696227167451
860,26.033963776215
893,26.0840379853709
926,25.9783547526125
959,25.2686423820617
992,25.2081991768396
1025,25.5387115828903
1058,25.0081729820861
1091,25.4893654707114
1124,25.3534582135581
1157,25.4494310687278
1190,24.7130506690235
1223,25.4342394585946
1256,25.1743175683343
1289,25.3495413313712
1322,24.6750407217757
1355,25.3081441939466
1388,24.9901087903143
1421,24.5560752224935
1577,287767.469609045
1578,2.23133738616616
1579,287769.700946431
1821,9.13706257812661
1835,9.13706257812661
1869,77.5395052737174
2,1, 7,10, 1, 1,35.00,40.00,Thursday       
6,22.8
7,18.9921011957057
8,70.3333333333333
9,4.93333333333333
10,23.3333333333333
751,10.
752,5.
753,0.666666666666667
754,0.0
1580,15.6
1581,82.2
1582,6.7
1583,27.
1584,5.000000000000000E-002
827,25.1812180751674
860,26.0781786641944
893,26.1300071280751
926,26.0388537170854
959,25.2910224670979
992,25.231388166016
1025,25.5699231290462
1058,25.0655080459932
1091,25.5169257262545
1124,25.4142835297246
1157,25.4830256053931
1190,24.770141330375
1223,25.463072335344
1256,25.237686704888
1289,25.3877402431777
1322,24.7419724746838
1355,25.3429252296994
1388,25.0643897534024
1421,24.5612207210964
1577,287767.469609045
1578,2.23198520353789
1579,287769.701594248
1821,9.13706257812661
1835,9.13706257812661
1869,77.5395052737174
2,1, 7,10, 1, 1,40.00,45.00,Thursday       
6,22.775
7,18.9922181727834
8,70.5
9,4.975
10,22.5
751,10.
752,5.
753,0.75
754,0.0
1580,15.6
1581,82.2
1582,6.7
1583,27.
1584,5.000000000000000E-002
827,25.1884149247661
860,26.1124400182926
893,26.1660072044556
926,26.0838450739937
959,25.3104244951484
992,25.251454428696
1025,25.5938495921284
1058,25.1114957907351
1091,25.5378884439567
1124,25.4630910490208
1157,25.5087797745759
1190,24.8160103150066
1223,25.4849738340065
1256,25.2876958141896
1289,25.4161321277884
1322,24.7929997154555
1355,25.3687284471257
1388,25.1223804031225
1421,24.5658880220777
1577,287767.469609045
1578,2.23300580652823
1579,287769.702614851
1821,9.13706257812661
1835,9.13706257812661
1869,77.5395052737174
2,1, 7,10, 1, 1,45.00,50.00,Thursday       
6,22.75
7,18.992287401092
8,70.6666666666667
9,5.01666666666667
10,21.6666666666667
751,10.
752,5.
753,0.833333333333333
754,0.0
1580,15.6
1581,82.2
1582,6.7
1583,27.
1584,5.000000000000000E-002
827,25.1927534963783
860,26.1398007792852
893,26.195120679724
926,26.1183043858348
959,25.327451500763
992,25.2690267844636
1025,25.6126555752435
1058,25.1489366490144
1091,25.5542163248058
1124,25.5029020794763
1157,25.5290133234719
1190,24.8537402965142
1223,25.5019700147532
1256,25.3279241422042
1289,25.4375677886481
1322,24.8326619100995
1355,25.3879833810725
1388,25.1679277196005
1421,24.5700400828038
1577,287767.469609045
1578,2.23438140612903
1579,287769.703990451
1821,9.13706257812661
1835,9.13706257812661
1869,77.5395052737174
2,1, 7,10, 1, 1,50.00,55.00,Thursday       
6,22.725
7,18.992306247775
8,70.8333333333333
9,5.05833333333333
10,20.8333333333333
751,10.
752,5.
753,0.916666666666667
754,0.0
1580,15.6
1581,82.2
1582,6.7
1583,27.
1584,5.000000000000000E-002
827,25.1951115159743
860,26.1622699418136
893,26.2193836539467
926,26.1455328214197
959,25.3426185261474
992,25.2846172639883
1025,25.6278043197807
1058,25.1800467597655
1091,25.5672301456283
1124,25.5360615240079
1157,25.5453199940173
1190,24.8852023021115
1223,25.5154474859233
1256,25.3610903815674
1289,25.4541082111477
1322,24.8643254488616
1355,25.4025534397894
1388,25.2044572206585
1421,24.5735316717966
1577,287767.469609045
1578,2.23609556204348
1579,287769.705704607
1821,9.13706257812661
1835,9.13706257812661
1869,77.5395052737174
2,1, 7,10, 1, 1,55.00,60.00,Thursday       
6,22.7
7,18.9922828550455
8,71.
9,5.1
10,20.
751,10.
752,5.
753,1.
754,0.0
1580,15.6
1581,82.2
1582,6.7
1583,27.
1584,5.000000000000000E-002
827,25.1961811756136
860,26.181184657782
893,26.2401535887117
926,26.167709544496
959,25.3558092542092
992,25.2984811001614
1025,25.6401976642969
1058,25.2062764726517
1091,25.5777660254849
1124,25.5640239161136
1157,25.5587097279381
1190,24.9118807426675
1223,25.5263210206027
1256,25.3889146967667
1289,25.4670936620642
1322,24.8902309983072
1355,25.4137178451476
1388,25.2342738126102
1421,24.5763433451185
1577,287767.469609045
1578,2.23813305764981
1579,287769.707742102
1821,9.13706257812661
1835,9.13706257812661
1869,77.5395052737174
2,1, 7,10, 1, 2, 0.00, 5.00,Thursday       
6,22.6833333333333
7,18.9771448329502
8,71.
9,5.15
10,20.
751,10.
752,5.
753,1.08333333333333
754,0.0
1580,15.6
1581,82.2
1582,6.7
1583,27.
1584,5.000000000000000E-002
827,25.1964158391772
860,26.1974467720177
893,26.2583455218194
926,26.1862797412597
959,25.3669945973473
992,25.3103403676382
1025,25.650779710088
1058,25.229047974358
1091,25.5867105716088
1124,25.5882609164591
1157,25.5701929217891
1190,24.9352453309518
1223,25.5355205364378
1256,25.4130076951927
1289,25.4777564930867
1322,24.9122480183212
1355,25.4226611452864
1388,25.259419733156
1421,24.578975294943
1577,287767.469609045
1578,2.24023334249399
1579,287769.709842387
1821,9.13706257812661
1835,9.13706257812661
1869,77.5395052737174
2,1, 7,10, 1, 2, 5.00,10.00,Thursday       
6,22.6666666666667
7,18.9620205242788
8,71.
9,5.2
10,20.
751,10.
752,5.
753,1.16666666666667
754,0.0
1580,15.6
1581,82.2
1582,6.7
1583,27.
1584,5.000000000000000E-002
827,25.1961189926614
860,26.2115709963674
893,26.2744608114072
926,26.2021000425957
959,25.3764243016978
992,25.3204057098664
1025,25.6598091215465
1058,25.2488545997826
1091,25.5943099551409
1124,25.6092499797623
1157,25.5800957809901
1190,24.9558781403356
1223,25.5433682432286
1256,25.4339620884798
1289,25.4865813658984
1322,24.9312111007318
1355,25.4298847028957
1388,25.2807740534049
1421,24.5811730521686
1577,287767.469609045
1578,2.23998058588233
1579,287769.70958963
1821,9.13706257812661
1835,9.13706257812661
1869,77.5395052737174
2,1, 7,10, 1, 2,10.00,15.00,Thursday       
6,22.65
7,18.946892415333
8,71.
9,5.25
10,20.
751,10.
752,5.
753,1.25
754,0.0
1580,15.6
1581,82.2
1582,6.7
1583,27.
1584,5.000000000000000E-002
827,25.1954735330559
860,26.2240861737148
893,26.2890463996407
926,26.2159303466818
959,25.3844045428189
992,25.3289809244141
1025,25.6675719221626
1058,25.2662718162592
1091,25.6008072727819
1124,25.6276352503154
1157,25.588736451632
1190,24.974384474456
1223,25.5501293008387
1256,25.4524595168992
1289,25.4939704025492
1322,24.9478534931465
1355,25.435751973584
1388,25.2991914724301
1421,24.5828972675854
1577,287767.469609045
1578,2.2377789625117
1579,287769.707388007
1821,9.13706257812661
1835,9.13706257812661
1869,77.5395052737174
2,1, 7,10, 1, 2,15.00,20.00,Thursday       
6,22.6333333333333
7,18.9317655153104
8,71.
9,5.3
10,20.
751,10.
752,5.
753,1.33333333333333
754,0.0
1580,15.6
1581,82.2
1582,6.7
1583,27.
1584,5.000000000000000E-002
827,25.194604526772
860,26.2353506623258
893,26.3024682258027
926,26.2282789729183
959,25.3912107891758
992,25.33635260115
1025,25.674245873128
1058,25.281619661265
1091,25.6063642638158
1124,25.6437789231623
1157,25.5963124056796
1190,24.991134729553
1223,25.5559829400705
1256,25.4688839948376
1289,25.5001721506275
1322,24.9626275896601
1355,25.4404509096454
1388,25.3151743500873
1421,24.5841473140748
1577,287767.469609045
1578,2.23610452060088
1579,287769.705713565
1821,9.13706257812661
1835,9.13706257812661
1869,77.5395052737174
2,1, 7,10, 1, 2,20.00,25.00,Thursday       
6,22.6166666666667
7,18.9166311614511
8,71.
9,5.35
10,20.
751,10.
752,5.
753,1.41666666666667
754,0.0
1580,15.6
1581,82.2
1582,6.7
1583,27.
1584,5.000000000000000E-002
827,25.1935951457599
860,26.2455925893224
893,26.3149518376729
926,26.2394673717599
959,25.3970811490993
992,25.342769306902
1025,25.6799901642375
1058,25.2954273356422
1091,25.6111166374528
1124,25.6580366703585
1157,25.6029879391407
1190,25.0064204900188
1223,25.5610628909028
1256,25.4835832515601
1289,25.5053843985851
1322,24.97586861404
1355,25.4443596492041
1388,25.3293563431777
1421,24.5849577093668
1577,287767.469609045
1578,2.23492680002722
1579,287769.704535845
1821,9.13706257812661
1835,9.13706257812661
1869,77.5395052737174
2,1, 7,10, 1, 2,25.00,30.00,Thursday       
6,22.6
7,18.9015100012382
8,71.
9,5.4
10,20.
751,10.
752,5.
753,1.5
754,0.0
1580,15.6
1581,82.2
1582,6.7
1583,27.
1584,5.000000000000000E-002
827,25.1924996553474
860,26.2549804874501
893,26.3266613531815
926,26.2497221811705
959,25.4021979360769
992,25.3484238110127
1025,25.6848986133859
1058,25.3078120041851
1091,25.6151507487117
1124,25.67059186801
1157,25.6088635632164
1190,25.0204178921514
1223,25.565460725247
1256,25.4967409317181
1289,25.5097246472127
1322,24.9877817785043
1355,25.4475765507089
1388,25.3419226775921
1421,24.5853496418768
1577,287767.469609045
1578,2.23421797496788
1579,287769.703827019
1821,9.13706257812661
1835,9.13706257812661
1869,77.5395052737174
2,1, 7,10, 1, 2,30.00,35.00,Thursday       
6,22.5833333333333
7,18.886377983174
8,71.
9,5.45
10,20.
751,10.
752,5.
753,1.58333333333333
754,0.0
1580,15.6
1581,82.2
1582,6.7
1583,27.
1584,5.000000000000000E-002
827,25.1913535026008
860,26.263642933397
893,26.337720180114
926,26.2592072550834
959,25.4067128604089
992,25.353474804604
1025,25.6890795513611
1058,25.3189677722803
1091,25.618557169879
1124,25.6816874572226
1157,25.6140453527658
1190,25.0333075697716
1223,25.5692547156964
1256,25.5085781703081
1289,25.5133027483666
1322,24.9985605028935
1355,25.4502040560919
1388,25.3531230147094
1421,24.5853693077868
1577,287767.469609045
1578,2.23395257214885
1579,287769.703561617
1821,9.13706257812661
1835,9.13706257812661
1869,77.5395052737174
2,1, 7,10, 1, 2,35.00,40.00,Thursday       
6,22.5666666666667
7,18.8712549459931
8,71.
9,5.5
10,20.
751,10.
752,5.
753,1.66666666666667
754,0.0
1580,15.6
1581,82.2
1582,6.7
1583,27.
1584,5.000000000000000E-002
827,25.1901798500774
860,26.2716808384366
893,26.3482238463561
926,26.268044791444
959,25.4107380062759
992,25.3580408086278
1025,25.6925952113888
1058,25.3289992901346
1091,25.6213927144781
1124,25.6914420663034
1157,25.6185963286182
1190,25.0451957884311
1223,25.5724809012249
1256,25.5191969993763
1289,25.516148043841
1322,25.0083213998373
1355,25.452310644272
1388,25.3630817724545
1421,24.5850343539539
1577,287767.469609045
1578,2.234107225141
1579,287769.70371627
1821,9.13706257812661
1835,9.13706257812661
1869,77.5395052737174
2,1, 7,10, 1, 2,40.00,45.00,Thursday       
6,22.55
7,18.8561233948798
8,71.
9,5.55
10,20.
751,10.
752,5.
753,1.75
754,0.0
1580,15.6
1581,82.2
1582,6.7
1583,27.
1584,5.000000000000000E-002
827,25.188993825554
860,26.2791751501715
893,26.3582480302812
926,26.2763275708745
959,25.4143675855306
992,25.3622196687794
1025,25.6955255752553
1058,25.3380488207979
1091,25.6237231428864
1124,25.7000351307695
1157,25.6225903639067
1190,25.056207505289
1223,25.5752601464652
1256,25.5287279420827
1289,25.5184849798521
1322,25.0171921196526
1355,25.4539583882256
1388,25.3719701298987
1421,24.5843879239401
1577,287767.469609045
1578,2.234660459391
1579,287769.704269504
1821,9.13706257812661
1835,9.13706257812661
1869,77.5395052737174
2,1, 7,10, 1, 2,45.00,50.00,Thursday       
6,22.5333333333333
7,18.8409976420891
8,71.
9,5.6
10,20.
751,10.
752,5.
753,1.83333333333333
754,0.0
1580,15.6
1581,82.2
1582,6.7
1583,27.
1584,5.000000000000000E-002
827,25.1878052871776
860,26.2861921626187
893,26.3678539344838
926,26.2841282849848
959,25.4176698239141
992,25.366083152204
1025,25.6979153672785
1058,25.3461892784035
1091,25.625588796107
1124,25.7075500430611
1157,25.6260683602178
1190,25.0664140427713
1223,25.5776775449734
1256,25.5374003534432
1289,25.5203412802575
1322,25.0252477891866
1355,25.4551894268515
1388,25.379867543644
1421,24.583442375203
1577,287767.469609045
1578,2.23559250355722
1579,287769.705201548
1821,9.13706257812661
1835,9.13706257812661
1869,77.5395052737174
2,1, 7,10, 1, 2,50.00,55.00,Thursday       
6,22.5166666666667
7,18.8258700201997
8,71.
9,5.65
10,20.
751,10.
752,5.
753,1.91666666666667
754,0.0
1580,15.6
1581,82.2
1582,6.7
1583,27.
1584,5.000000000000000E-002
827,25.1866206262877
860,26.2927869906952
893,26.3770916963475
926,26.2915044291359
959,25.4207035647096
992,25.3696916423765
1025,25.6998265462548
1058,25.3535297866432
1091,25.627039889263
1124,25.714125403233
1157,25.6290797634249
1190,25.0759082925764
1223,25.5797726124739
1256,25.5452953560982
1289,25.5217729409868
1322,25.0325809663922
1355,25.4560460834007
1388,25.3869000270687
1421,24.5822354255326
1577,287767.469609045
1578,2.23688512343999
1579,287769.706494168
1821,9.13706257812661
1835,9.13706257812661
1869,77.5395052737174
2,1, 7,10, 1, 2,55.00,60.00,Thursday       
6,22.5
7,18.8107496645331
8,71.
9,5.7
10,20.
751,10.
752,5.
753,2.
754,0.0
1580,15.6
1581,82.2
1582,6.7
1583,27.
1584,5.000000000000000E-002
827,25.1854439462429
860,26.2990061706767
893,26.3860031195321
926,26.2985031775178
959,25.4235107915998
992,25.3730889275115
1025,25.7012928699674
1058,25.3601245130354
1091,25.6281063597047
1124,25.7198230072566
1157,25.6316252852626
1190,25.0847411190568
1223,25.5815721768005
1256,25.5524594110867
1289,25.5228095974493
1322,25.039244473352
1355,25.4565578198488
1388,25.393123280499
1421,24.5807751730336
1577,287767.469609045
1578,2.23852147538683
1579,287769.70813052
1821,9.13706257812661
1835,9.13706257812661
1869,77.5395052737174
2,1, 7,10, 1, 3, 0.00, 5.00,Thursday       
6,22.475
7,18.7994298617042
8,71.0833333333333
9,5.65
10,20.
751,10.
752,5.
753,2.08333333333333
754,0.0
1580,15.6
1581,82.2
1582,6.7
1583,27.
1584,5.000000000000000E-002
827,25.1842778602626
860,26.3048892465812
893,26.3946233174668
926,26.3051630822694
959,25.4260824902474
992,25.3762664903292
1025,25.7019962500926
1058,25.365649256817
1091,25.6284375167282
1124,25.7243744599214
1157,25.6334878396121
1190,25.0925858714903
1223,25.5827339178304
1256,25.5586100266783
1289,25.5231420555545
1322,25.0449239071269
1355,25.4563945314143
1388,25.3982709611827
1421,24.5785445545511
1577,287767.469609045
1578,2.2404859765389
1579,287769.710095021
1821,9.13706257812661
1835,9.13706257812661
1869,77.5395052737174
2,1, 7,10, 1, 3, 5.00,10.00,Thursday       
6,22.45
7,18.7881039528538
8,71.1666666666667
9,5.6
10,20.
751,10.
752,5.
753,2.16666666666667
754,0.0
1580,15.6
1581,82.2
1582,6.7
1583,27.
1584,5.000000000000000E-002
827,25.1831239425314
860,26.3104701425047
893,26.4029821237123
926,26.3115159455726
959,25.4284589382873
992,25.3792656979698
1025,25.7020541254845
1058,25.370248307569
1091,25.6281436175286
1124,25.7279277032394
1157,25.6347546314234
1190,25.0995531821077
1223,25.5833295748731
1256,25.563857576457
1289,25.5228503351461
1322,25.0497202802436
1355,25.4556223872519
1388,25.4024529394173
1421,24.5757892191112
1577,287767.469609045
1578,2.2422654751305
1579,287769.71187452
1821,9.13706257812661
1835,9.13706257812661
1869,77.5395052737174
2,1, 7,10, 1, 3,10.00,15.00,Thursday       
6,22.425
7,18.7767506606596
8,71.25
9,5.55
10,20.
751,10.
752,5.
753,2.25
754,0.0
1580,15.6
1581,82.2
1582,6.7
1583,27.
1584,5.000000000000000E-002
827,25.1819831017492
860,26.3157779540237
893,26.4111047529183
926,26.3175862531787
959,25.4306735676218
992,25.3821198162903
1025,25.701609805057
1058,25.3741124667674
1091,25.6273628009503
1124,25.7306800423559
1157,25.635559623776
1190,25.1058131704731
1223,25.5834839697437
1256,25.5683800429838
1289,25.5220616993021
1322,25.0537997390519
1355,25.4543602951003
1388,25.4058492796272
1421,24.5726585955413
1577,287767.469609045
1578,2.24170597550914
1579,287769.71131502
1821,9.13706257812661
1835,9.13706257812661
1869,77.5395052737174
2,1, 7,10, 1, 3,15.00,20.00,Thursday       
6,22.4
7,18.7653785542043
8,71.3333333333333
9,5.5
10,20.
751,10.
752,5.
753,2.33333333333333
754,0.0
1580,15.6
1581,82.2
1582,6.7
1583,27.
1584,5.000000000000000E-002
827,25.1808558017153
860,26.3208380779528
893,26.419012959217
926,26.3233947878987
959,25.4327500388179
992,25.3848522544706
1025,25.7007400222456
1058,25.3773401596703
1091,25.6261682642797
1124,25.7327254646137
1157,25.6359830589008
1190,25.111470372835
1223,25.5832817865284
1256,25.5722710357874
1289,25.5208537614784
1322,25.0572638186432
1355,25.4526928182751
1388,25.4085552762554
1421,24.5692181670342
1577,287767.469609045
1578,2.23945624397543
1579,287769.709065289
1821,9.13706257812661
1835,9.13706257812661
1869,77.5395052737174
2,1, 7,10, 1, 3,20.00,25.00,Thursday       
6,22.375
7,18.753990644313
8,71.4166666666667
9,5.45
10,20.
751,10.
752,5.
753,2.41666666666667
754,0.0
1580,15.6
1581,82.2
1582,6.7
1583,27.
1584,5.000000000000000E-002
827,25.1797422089238
860,26.3256729282036
893,26.4267257750692
926,26.3289597913275
959,25.4347090431688
992,25.3874834028291
1025,25.6995100933313
1058,25.3800268804394
1091,25.6246005258468
1124,25.7341685960339
1157,25.636089644118
1190,25.1166168650592
1223,25.5827859384904
1256,25.5756274909837
1289,25.5192907240528
1322,25.0602020752841
1355,25.450683091803
1388,25.4106718571883
1421,24.5655320736183
1577,287767.469609045
1578,2.23773735955484
1579,287769.707346404
1821,9.13706257812661
1835,9.13706257812661
1869,77.5395052737174
2,1, 7,10, 1, 3,25.00,30.00,Thursday       
6,22.35
7,18.7425743766771
8,71.5
9,5.4
10,20.
751,10.
752,5.
753,2.5
754,0.0
1580,15.6
1581,82.2
1582,6.7
1583,27.
1584,5.000000000000000E-002
827,25.1786422919861
860,26.330302494658
893,26.4342600590786
926,26.3342984758848
959,25.4365649558574
992,25.3900279975161
1025,25.6979552084944
1058,25.3822210006384
1091,25.6227610403213
1124,25.735056735143
1157,25.6359149558908
1190,25.1213030000842
1223,25.582035910169
1256,25.5784943877296
1289,25.5174087589794
1322,25.0626646704381
1355,25.4483730117
1388,25.4122461325968
1421,24.5616199297107
1577,287767.469609045
1578,2.23651855189506
1579,287769.706127596
1821,9.13706257812661
1835,9.13706257812661
1869,77.5395052737174
2,1, 7,10, 1, 3,30.00,35.00,Thursday       
6,22.325
7,18.7311444511409
8,71.5833333333333
9,5.35
10,20.
751,10.
752,5.
753,2.58333333333333
754,0.0
1580,15.6
1581,82.2
1582,6.7
1583,27.
1584,5.000000000000000E-002
827,25.1775558890355
860,26.3347446085533
893,26.4416308010858
926,26.3394263181771
959,25.4383315632109
992,25.3924995594488
1025,25.6961144136958
1058,25.3839845280439
1091,25.6206921743929
1124,25.7354608100289
1157,25.6354953293021
1190,25.1255843353031
1223,25.5810655663131
1256,25.5809341446516
1289,25.5152454447542
1322,25.0647061358569
1355,25.4457973196526
1388,25.4133443666826
1421,24.5575193818658
1577,287767.469609045
1578,2.23577171843395
1579,287769.705380763
1821,9.13706257812661
1835,9.13706257812661
1869,77.5395052737174
2,1, 7,10, 1, 3,35.00,40.00,Thursday       
6,22.3
7,18.7196883795071
8,71.6666666666667
9,5.3
10,20.
751,10.
752,5.
753,2.66666666666667
754,0.0
1580,15.6
1581,82.2
1582,6.7
1583,27.
1584,5.000000000000000E-002
827,25.1764827535983
860,26.3390152483291
893,26.448851412364
926,26.3443579503393
959,25.4400184508674
992,25.394909095495
1025,25.694007788297
1058,25.3853478337686
1091,25.6184174625634
1124,25.7354110220399
1157,25.6348502829165
1190,25.1294903860231
1223,25.5798965748252
1256,25.5829737368853
1289,25.5128217077027
1322,25.0663564302039
1355,25.442980162532
1388,25.413995711333
1421,24.5532363386602
1577,287767.469609045
1578,2.23547113833256
1579,287769.705080183
1821,9.13706257812661
1835,9.13706257812661
1869,77.5395052737174
2,1, 7,10, 1, 3,40.00,45.00,Thursday       
6,22.275
7,18.7082256930685
8,71.75
9,5.25
10,20.
751,10.
752,5.
753,2.75
754,0.0
1580,15.6
1581,82.2
1582,6.7
1583,27.
1584,5.000000000000000E-002
827,25.1754225859182
860,26.3431287500274
893,26.4559338956152
926,26.349106391472
959,25.44163522421
992,25.3972657619096
1025,25.6916616995998
1058,25.3863569240496
1091,25.6159618792152
1124,25.7349608290415
1157,25.63400426709
1190,25.1330603036866
1223,25.5785504142703
1256,25.5846589033972
1289,25.5101636138268
1322,25.0676543593432
1355,25.4399430097775
1388,25.4142495479861
1421,24.5487981383953
1577,287767.469609045
1578,2.23559322309748
1579,287769.705202268
1821,9.13706257812661
1835,9.13706257812661
1869,77.5395052737174
2,1, 7,10, 1, 3,45.00,50.00,Thursday       
6,22.25
7,18.6967269491084
8,71.8333333333333
9,5.2
10,20.
751,10.
752,5.
753,2.83333333333333
754,0.0
1580,15.6
1581,82.2
1582,6.7
1583,27.
1584,5.000000000000000E-002
827,25.1743750544448
860,26.3470980426206
893,26.4628890413232
926,26.3536838801023
959,25.4431882658869
992,25.3995752089604
1025,25.6890873500002
1058,25.387033545341
1091,25.6133385521943
1124,25.7341315912312
1157,25.6329699672749
1190,25.1363141064768
1223,25.5770407501677
1256,25.5860083807004
1289,25.507285255592
1322,25.0686206176684
1355,25.4367062778573
1388,25.4141265098018
1421,24.5442059164785
1577,287767.469609045
1578,2.23611629847261
1579,287769.705725343
1821,9.13706257812661
1835,9.13706257812661
1869,77.5395052737174
2,1, 7,10, 1, 3,50.00,55.00,Thursday       
6,22.225
7,18.685219435036
8,71.9166666666667
9,5.15
10,20.
751,10.
752,5.
753,2.91666666666667
754,0.0
1580,15.6
1581,82.2
1582,6.7
1583,27.
1584,5.000000000000000E-002
827,25.1733398107225
860,26.350934788178
893,26.4697265426355
926,26.3581012172068
959,25.4446845078121
992,25.4018432300926
1025,25.6862985882928
1058,25.3874138747343
1091,25.6105648064113
1124,25.7329648558235
1157,25.6317656303768
1190,25.1392816725061
1223,25.5753828971339
1256,25.5870581979915
1289,25.5042063952189
1322,25.0692851304727
1355,25.4332876214838
1388,25.4136654914802
1421,24.5394816785524
1577,287767.469609045
1578,2.23702041308271
1579,287769.706629458
1821,9.13706257812661
1835,9.13706257812661
1869,77.5395052737174
2,1, 7,10, 1, 3,55.00,60.00,Thursday       
6,22.2
7,18.6736872664903
8,72.
9,5.1
10,20.
751,10.
752,5.
753,3.
754,0.0
1580,15.6
1581,82.2
1582,6.7
1583,27.
1584,5.000000000000000E-002
827,25.1723164999768
860,26.3546495501252
893,26.4764551347461
926,26.362368542308
959,25.4461287915876
992,25.4040738989456
1025,25.6833020260677
1058,25.3875145357971
1091,25.6076495966892
1124,25.7314755832432
1157,25.6304004311047
1190,25.14197759863
1223,25.5735865616044
1256,25.5878226618318
1289,25.5009373869017
1322,25.0696633617945
1355,25.4296994117352
1388,25.4128821084102
1421,24.534624410763
1577,287767.469609045
1578,2.23828717004641
1579,287769.707896215
1821,9.13706257812661
1835,9.13706257812661
1869,77.5395052737174