Program Version,EnergyPlus-Windows-64 8.0.0.008, YMD=2015.09.04 23:06
1,5,Environment Title[],Latitude[deg],Longitude[deg],Time Zone[],Elevation[m]
2,6,Day of Simulation[],Month[],Day of Month[],DST Indicator[1=yes 0=no],Hour[],StartMinute[],EndMinute[],DayType
3,3,Cumulative Day of Simulation[],Month[],Day of Month[],DST Indicator[1=yes 0=no],DayType  ! When Daily Report Variables Requested
4,2,Cumulative Days of Simulation[],Month[]  ! When Monthly Report Variables Requested
5,1,Cumulative Days of Simulation[] ! When Run Period Report Variables Requested
6,1,Environment,Site Outdoor Air Drybulb Temperature [C] !TimeStep
7,1,Environment,Site Outdoor Air Relative Humidity [%] !TimeStep
8,1,Environment,Site Wind Speed [m/s] !TimeStep
9,1,Environment,Site Wind Direction [deg] !TimeStep
10,1,Environment,Site Direct Solar Radiation Rate per Area [W/m2] !TimeStep
11,1,PLENUM-1,Zone Total Internal Total Heating Rate [W] !TimeStep
12,1,SPACE1-1,Zone Total Internal Total Heating Rate [W] !TimeStep
13,1,SPACE2-1,Zone Total Internal Total Heating Rate [W] !TimeStep
14,1,SPACE3-1,Zone Total Internal Total Heating Rate [W] !TimeStep
15,1,SPACE4-1,Zone Total Internal Total Heating Rate [W] !TimeStep
16,1,SPACE5-1,Zone Total Internal Total Heating Rate [W] !TimeStep
17,1,SPACE1-1,Zone People Occupant Count [] !TimeStep
18,1,SPACE2-1,Zone People Occupant Count [] !TimeStep
19,1,SPACE3-1,Zone People Occupant Count [] !TimeStep
20,1,SPACE4-1,Zone People Occupant Count [] !TimeStep
21,1,SPACE5-1,Zone People Occupant Count [] !TimeStep
83,1,SPACE1-1,Zone Lights Total Heating Energy [J] !TimeStep
105,1,SPACE2-1,Zone Lights Total Heating Energy [J] !TimeStep
127,1,SPACE3-1,Zone Lights Total Heating Energy [J] !TimeStep
149,1,SPACE4-1,Zone Lights Total Heating Energy [J] !TimeStep
171,1,SPACE5-1,Zone Lights Total Heating Energy [J] !TimeStep
247,1,FRONT-1,Surface Outside Face Incident Solar Radiation Rate per Area [W/m2] !TimeStep
248,1,PLENUM-1,Zone Air Heat Balance Air Energy Storage Rate [W] !TimeStep
249,1,SPACE1-1,Zone Air Heat Balance Air Energy Storage Rate [W] !TimeStep
250,1,SPACE2-1,Zone Air Heat Balance Air Energy Storage Rate [W] !TimeStep
251,1,SPACE3-1,Zone Air Heat Balance Air Energy Storage Rate [W] !TimeStep
252,1,SPACE4-1,Zone Air Heat Balance Air Energy Storage Rate [W] !TimeStep
253,1,SPACE5-1,Zone Air Heat Balance Air Energy Storage Rate [W] !TimeStep
326,1,PLENUM-1,Zone Air System Sensible Heating Rate [W] !TimeStep
327,1,PLENUM-1,Zone Air Temperature [C] !TimeStep
360,1,SPACE1-1,Zone Air System Sensible Heating Rate [W] !TimeStep
361,1,SPACE1-1,Zone Air Temperature [C] !TimeStep
394,1,SPACE2-1,Zone Air System Sensible Heating Rate [W] !TimeStep
395,1,SPACE2-1,Zone Air Temperature [C] !TimeStep
428,1,SPACE3-1,Zone Air System Sensible Heating Rate [W] !TimeStep
429,1,SPACE3-1,Zone Air Temperature [C] !TimeStep
462,1,SPACE4-1,Zone Air System Sensible Heating Rate [W] !TimeStep
463,1,SPACE4-1,Zone Air Temperature [C] !TimeStep
496,1,SPACE5-1,Zone Air System Sensible Heating Rate [W] !TimeStep
497,1,SPACE5-1,Zone Air Temperature [C] !TimeStep
615,1,SPACE1-1 BASEBOARD,Baseboard Total Heating Rate [W] !TimeStep
658,1,SPACE3-1 BASEBOARD,Baseboard Total Heating Rate [W] !TimeStep
End of Data Dictionary
1,CHICAGO_IL_USA ANNUAL HEATING 99% DESIGN CONDITIONS DB,  41.98, -87.92,  -6.00, 201.00
2,1, 1,21, 0, 1, 0.00,60.00,WinterDesignDay
6,-16.6
7,100.
8,4.9
9,270.
10,0.0
11,0.0
12,290.4
13,125.4
14,290.4
15,125.4
16,543.4
17,0.0
18,0.0
19,0.0
20,0.0
21,0.0
83,285120.
105,123120.
127,285120.
149,123120.
171,533520.
247,0.0
248,-5.933452962026691E-002
249,-2.912229825395710E-002
250,7.094516821900739E-006
251,-1.649190806891391E-002
252,7.450549299542385E-006
253,2.610741853223889E-005
326,2749.1902616993
327,17.4871027774461
360,2882.12939357846
361,22.3037850529716
394,1192.41833931559
395,22.0037855179686
428,2782.18350674958
429,22.3001972003468
462,1182.08720637391
463,22.0037854270045
496,1682.82276949966
497,22.0146429138341
615,3414.75883486737
658,3296.45053382298
2,1, 1,21, 0, 2, 0.00,60.00,WinterDesignDay
6,-16.6
7,100.
8,4.9
9,270.
10,0.0
11,0.0
12,290.4
13,125.4
14,290.4
15,125.4
16,543.4
17,0.0
18,0.0
19,0.0
20,0.0
21,0.0
83,285120.
105,123120.
127,285120.
149,123120.
171,533520.
247,0.0
248,-4.871567098840251E-002
249,-2.534660496883141E-002
250,2.176678142055720E-006
251,-1.799450772683893E-002
252,2.283716310666451E-006
253,1.160141444507093E-005
326,2749.43855111464
327,17.4865822085368
360,2882.09071809698
361,22.3035022720724
394,1192.43837090349
395,22.0037856116291
428,2782.13632233976
429,22.2999908694304
462,1182.10724582739
463,22.0037855252708
496,1682.93800416547
497,22.0146429937952
615,3414.7604897737
658,3296.45111360825
2,1, 1,21, 0, 3, 0.00,60.00,WinterDesignDay
6,-16.6
7,100.
8,4.9
9,270.
10,0.0
11,0.0
12,290.4
13,125.4
14,290.4
15,125.4
16,543.4
17,0.0
18,0.0
19,0.0
20,0.0
21,0.0
83,285120.
105,123120.
127,285120.
149,123120.
171,533520.
247,0.0
248,-3.997387385897215E-002
249,-2.119659853779764E-002
250,1.047812433383818E-006
251,-1.676250272608700E-002
252,1.077971584443982E-006
253,8.624494883074279E-006
326,2749.63443175082
327,17.486155053888
360,2882.05948921547
361,22.3032657911549
394,1192.45494291799
395,22.0037856567155
428,2782.10049306967
429,22.2997986652118
462,1182.1238241659
463,22.0037855716549
496,1683.03326762238
497,22.0146430532383
615,3414.76186061883
658,3296.45187796316
2,1, 1,21, 0, 4, 0.00,60.00,WinterDesignDay
6,-16.6
7,100.
8,4.9
9,270.
10,0.0
11,0.0
12,290.4
13,125.4
14,290.4
15,125.4
16,543.4
17,0.0
18,0.0
19,0.0
20,0.0
21,0.0
83,285120.
105,123120.
127,285120.
149,123120.
171,533520.
247,0.0
248,-3.280004973656127E-002
249,-1.755182075805753E-002
250,6.887501390520946E-007
251,-1.485506748943771E-002
252,6.978475227810371E-007
253,6.739573072036104E-006
326,2749.79198738719
327,17.4858045580396
360,2882.03399040805
361,22.3030699735138
394,1192.4686096544
395,22.0037856863518
428,2782.07258475017
429,22.299628332354
462,1182.13749613546
463,22.0037856016826
496,1683.11158809266
497,22.0146430996899
615,3414.76290066915
658,3296.4525452863
2,1, 1,21, 0, 5, 0.00,60.00,WinterDesignDay
6,-16.6
7,100.
8,4.9
9,270.
10,0.0
11,0.0
12,290.4
13,125.4
14,290.4
15,125.4
16,543.4
17,0.0
18,0.0
19,0.0
20,0.0
21,0.0
83,285120.
105,123120.
127,285120.
149,123120.
171,533520.
247,0.0
248,-2.693220208052381E-002
249,-1.440607221142891E-002
250,5.172142102074418E-007
251,-1.272723376858913E-002
252,5.206358847210007E-007
253,5.345451674791758E-006
326,2749.91971980787
327,17.4855167653154
360,2882.01301699081
361,22.3029092516386
394,1192.47986518573
395,22.0037857086071
428,2782.05041106075
429,22.2994823979763
462,1182.14875597706
463,22.0037856240851
496,1683.17592955437
497,22.0146431365327
615,3414.76369782065
658,3296.45310928676
2,1, 1,21, 0, 6, 0.00,60.00,WinterDesignDay
6,-16.6
7,100.
8,4.9
9,270.
10,0.0
11,0.0
12,290.4
13,125.4
14,290.4
15,125.4
16,543.4
17,0.0
18,0.0
19,0.0
20,0.0
21,0.0
83,285120.
105,123120.
127,285120.
149,123120.
171,533520.
247,0.0
248,-2.212149197031434E-002
249,-1.177599649407159E-002
250,4.098300933448925E-007
251,-1.070021452449228E-002
252,4.115801491989290E-007
253,4.312606197799304E-006
326,2750.02395640492
327,17.4852803791766
360,2881.99569694562
361,22.3027778723585
394,1192.48912381386
395,22.0037857262417
428,2782.0325506733
429,22.2993597060758
462,1182.15801813863
463,22.0037856417951
496,1683.22876633102
497,22.0146431662567
615,3414.76432381816
658,3296.45358934098
2,1, 1,21, 0, 7, 0.00,60.00,WinterDesignDay
6,-16.6
7,100.
8,4.9
9,270.
10,0.0
11,0.0
12,290.4
13,125.4
14,290.4
15,125.4
16,543.4
17,0.0
18,0.0
19,0.0
20,0.0
21,0.0
83,285120.
105,123120.
127,285120.
149,123120.
171,533520.
247,0.0
248,9.664922175811391E-002
249,1.7562396462431
250,4.848052583129829E-003
251,1.51462951195126
252,4.814982073725549E-003
253,0.126175632085613
326,2749.38193264828
327,17.4863131584108
360,2881.36881050832
361,22.3223727154013
394,1192.47521034032
395,22.0039943337171
428,2780.54103644222
429,22.3167279277361
462,1182.14351738685
463,22.0039928262742
496,1683.14266758527
497,22.0155128167084
615,3632.79671172694
658,3505.99637688799
2,1, 1,21, 0, 8, 0.00,60.00,WinterDesignDay
6,-16.6
7,100.
8,4.9
9,270.
10,0.0
11,0.0
12,290.4
13,125.4
14,290.4
15,125.4
16,543.4
17,0.0
18,0.0
19,0.0
20,0.0
21,0.0
83,285120.
105,123120.
127,285120.
149,123120.
171,533520.
247,0.0
248,0.224371833357763
249,3.469340981577367E-002
250,2.880844265199564E-004
251,2.292318254902033E-002
252,3.123891481156416E-004
253,-2.785940927690425E-003
326,2752.46355569572
327,17.488710782289
360,2864.56615872204
361,22.3227597997107
394,1192.13614186075
395,22.0040067297392
428,2764.92075736249
429,22.3169907875752
462,1181.80502428283
463,22.0040062681074
496,1680.1176720453
497,22.015493614945
615,3616.04013342197
658,3490.40633082995
2,1, 1,21, 0, 9, 0.00,60.00,WinterDesignDay
6,-16.6
7,100.
8,4.9
9,270.
10,0.0
11,0.0
12,290.4
13,125.4
14,290.4
15,125.4
16,543.4
17,0.0
18,0.0
19,0.0
20,0.0
21,0.0
83,285120.
105,123120.
127,285120.
149,123120.
171,533520.
247,0.0
248,0.168231088801278
249,-5.088195809841108E-002
250,1.363188098570876E-005
251,-3.678813045889313E-002
252,2.044831770776959E-005
253,-7.760872223317989E-004
326,2751.47394053872
327,17.4905085006765
360,2864.51891917237
361,22.3221920962226
394,1191.98368651271
395,22.0040073163072
428,2764.862694436
429,22.3165689391592
462,1181.65237393384
463,22.0040071479807
496,1679.32420235842
497,22.0154882658571
615,3615.92532183324
658,3490.29974869098
2,1, 1,21, 0,10, 0.00,60.00,WinterDesignDay
6,-16.6
7,100.
8,4.9
9,270.
10,0.0
11,0.0
12,290.4
13,125.4
14,290.4
15,125.4
16,543.4
17,0.0
18,0.0
19,0.0
20,0.0
21,0.0
83,285120.
105,123120.
127,285120.
149,123120.
171,533520.
247,0.0
248,0.122989059563258
249,5.727565064255583E-002
250,-1.444822814957990E-005
251,5.815275292102778E-002
252,-1.287625538898522E-005
253,-2.734811462652182E-004
326,2750.57804426469
327,17.4918227684211
360,2864.40618653031
361,22.3228311372146
394,1191.89511183504
395,22.0040066946125
428,2764.75274558881
429,22.3172357765811
462,1181.56377830968
463,22.0040065939266
496,1678.77322217678
497,22.0154863809212
615,3615.88865231881
658,3490.26649665102
2,1, 1,21, 0,11, 0.00,60.00,WinterDesignDay
6,-16.6
7,100.
8,4.9
9,270.
10,0.0
11,0.0
12,290.4
13,125.4
14,290.4
15,125.4
16,543.4
17,0.0
18,0.0
19,0.0
20,0.0
21,0.0
83,285120.
105,123120.
127,285120.
149,123120.
171,533520.
247,0.0
248,0.101305111951006
249,6.393316411735091E-002
250,-8.399216143905524E-006
251,6.162586682672193E-002
252,-8.124544790087109E-006
253,-9.157757685561371E-005
326,2750.08860746257
327,17.4929053243605
360,2864.3112264247
361,22.3235444597311
394,1191.83525842738
395,22.0040063332016
428,2764.66185576317
429,22.3179424418786
462,1181.50388809963
463,22.0040062443345
496,1678.43480916165
497,22.0154857497337
615,3615.8785968471
658,3490.25688446529
2,1, 1,21, 0,12, 0.00,60.00,WinterDesignDay
6,-16.6
7,100.
8,4.9
9,270.
10,0.0
11,0.0
12,290.4
13,125.4
14,290.4
15,125.4
16,543.4
17,0.0
18,0.0
19,0.0
20,0.0
21,0.0
83,285120.
105,123120.
127,285120.
149,123120.
171,533520.
247,0.0
248,8.481580816910392E-002
249,4.533652800558035E-002
250,-4.713628189816135E-006
251,4.377754930141698E-002
252,-4.685391513795071E-006
253,-4.572499083177523E-005
326,2749.717290468
327,17.4938116768777
360,2864.24461499829
361,22.3240502945675
394,1191.79067448618
395,22.0040061303783
428,2764.59801960447
429,22.3184444409425
462,1181.45928092151
463,22.0040060427262
496,1678.18273588378
497,22.0154854345797
615,3615.8721934201
658,3490.25078610613
2,1, 1,21, 0,13, 0.00,60.00,WinterDesignDay
6,-16.6
7,100.
8,4.9
9,270.
10,0.0
11,0.0
12,290.4
13,125.4
14,290.4
15,125.4
16,543.4
17,0.0
18,0.0
19,0.0
20,0.0
21,0.0
83,285120.
105,123120.
127,285120.
149,123120.
171,533520.
247,0.0
248,6.992415575936799E-002
249,3.176239893044071E-002
250,-3.043434072430444E-006
251,3.083674951478204E-002
252,-3.050866190226727E-006
253,-2.988864371177284E-005
326,2749.39215764747
327,17.4945588972236
360,2864.19781314585
361,22.3244046787219
394,1191.7568778818
395,22.0040059994219
428,2764.55300257505
429,22.3187980477151
462,1181.42546900011
463,22.0040059114501
496,1677.99137301029
497,22.0154852285759
615,3615.86757284789
658,3490.2464394253
2,1, 1,21, 0,14, 0.00,60.00,WinterDesignDay
6,-16.6
7,100.
8,4.9
9,270.
10,0.0
11,0.0
12,290.4
13,125.4
14,290.4
15,125.4
16,543.4
17,0.0
18,0.0
19,0.0
20,0.0
21,0.0
83,285120.
105,123120.
127,285120.
149,123120.
171,533520.
247,0.0
248,5.709988650437227E-002
249,2.301598352578440E-002
250,-2.059545232347302E-006
251,2.239725032914477E-002
252,-2.069069472389802E-006
253,-2.036609000387310E-005
326,2749.1132064336
327,17.4951690767253
360,2864.1641983012
361,22.3246614762945
394,1191.7309446901
395,22.0040059108015
428,2764.52058813293
429,22.3190548784904
462,1181.39952495858
463,22.0040058224198
496,1677.84428341545
497,22.015485088205
615,3615.8645238459
658,3490.24356456768
2,1, 1,21, 0,15, 0.00,60.00,WinterDesignDay
6,-16.6
7,100.
8,4.9
9,270.
10,0.0
11,0.0
12,290.4
13,125.4
14,290.4
15,125.4
16,543.4
17,0.0
18,0.0
19,0.0
20,0.0
21,0.0
83,285120.
105,123120.
127,285120.
149,123120.
171,533520.
247,0.0
248,3.976020183752921E-002
249,-0.353367049322177
250,-3.466351167076335E-004
251,1.647420788172102E-002
252,-3.442867100623311E-004
253,-6.601116512712108E-003
326,2748.92137932412
327,17.4955939619062
360,2860.14458103935
361,22.3207188861551
394,1191.71235810819
395,22.0039909953949
428,2764.49694116048
429,22.3192437894605
462,1181.3809723282
463,22.0039910080631
496,1677.73670977212
497,22.0154395908103
615,3611.37563193619
658,3490.24164533247
2,1, 1,21, 0,16, 0.00,60.00,WinterDesignDay
6,-16.6
7,100.
8,4.9
9,270.
10,0.0
11,0.0
12,290.4
13,125.4
14,290.4
15,125.4
16,543.4
17,0.0
18,0.0
19,0.0
20,0.0
21,0.0
83,285120.
105,123120.
127,285120.
149,123120.
171,533520.
247,0.0
248,2.283818946687312E-002
249,0.162455153543112
250,2.735284579424889E-004
251,1.153911085694795E-002
252,2.697782967332458E-004
253,6.012486086065326E-003
326,2748.31925116195
327,17.4958380154061
360,2864.40857105335
361,22.3225314434288
394,1191.71893890781
395,22.0040027650862
428,2764.48007982032
429,22.3193761093644
462,1181.38747027362
463,22.0040026163883
496,1677.80585960322
497,22.0154810311471
615,3615.85536519158
658,3490.24000286547
2,1, 1,21, 0,17, 0.00,60.00,WinterDesignDay
6,-16.6
7,100.
8,4.9
9,270.
10,0.0
11,0.0
12,290.4
13,125.4
14,290.4
15,125.4
16,543.4
17,0.0
18,0.0
19,0.0
20,0.0
21,0.0
83,285120.
105,123120.
127,285120.
149,123120.
171,533520.
247,0.0
248,2.521201461589269E-002
249,0.131892822707401
250,-3.155553361634004E-005
251,-0.283507617367713
252,-3.024249103325235E-005
253,-9.441456353689237E-004
326,2748.39911061436
327,17.4961074363301
360,2864.24476815294
361,22.324003015617
394,1191.70438218216
395,22.0040014072791
428,2760.97746078583
429,22.3161251406909
462,1181.37296884333
463,22.0040013150802
496,1677.68427672424
497,22.015474523737
615,3615.86671910345
658,3486.36347122659
2,1, 1,21, 0,18, 0.00,60.00,WinterDesignDay
6,-16.6
7,100.
8,4.9
9,270.
10,0.0
11,0.0
12,290.4
13,125.4
14,290.4
15,125.4
16,543.4
17,0.0
18,0.0
19,0.0
20,0.0
21,0.0
83,285120.
105,123120.
127,285120.
149,123120.
171,533520.
247,0.0
248,1.438822607222973E-002
249,5.450436208208073E-002
250,8.006724295914529E-005
251,0.123417203707468
252,7.957320029381378E-005
253,1.370023185885627E-003
326,2748.10795294592
327,17.4962611920403
360,2864.17217639385
361,22.3246111402049
394,1191.7059090574
395,22.0040048525029
428,2764.68387518778
429,22.3175403668091
462,1181.37447170607
463,22.0040047390458
496,1677.70893492991
497,22.015483966457
615,3615.86651058528
658,3490.23265892372
2,1, 1,21, 0,19, 0.00,60.00,WinterDesignDay
6,-16.6
7,100.
8,4.9
9,270.
10,0.0
11,0.0
12,290.4
13,125.4
14,290.4
15,125.4
16,543.4
17,0.0
18,0.0
19,0.0
20,0.0
21,0.0
83,285120.
105,123120.
127,285120.
149,123120.
171,533520.
247,0.0
248,-0.104082969353585
249,-1.64829610266712
250,-5.367267228474496E-003
251,-1.49134920906658
252,-5.330213101707477E-003
253,-0.137529548322498
326,2749.0046326433
327,17.4951489430699
360,2865.93706430472
361,22.3062216578721
394,1191.71724031861
395,22.0037739038465
428,2766.24151249623
429,22.3004400425685
462,1181.3864637783
463,22.0037753847939
496,1677.76599775922
497,22.0145360636326
615,3397.86178301682
658,3279.5752490696
2,1, 1,21, 0,20, 0.00,60.00,WinterDesignDay
6,-16.6
7,100.
8,4.9
9,270.
10,0.0
11,0.0
12,290.4
13,125.4
14,290.4
15,125.4
16,543.4
17,0.0
18,0.0
19,0.0
20,0.0
21,0.0
83,285120.
105,123120.
127,285120.
149,123120.
171,533520.
247,0.0
248,-0.215927321033495
249,1.399102946181093E-002
250,1.467713201547898E-004
251,0.11731158865646
252,1.167859534568670E-004
253,1.334019556150153E-002
326,2746.02749227604
327,17.4928415239471
360,2882.51758932663
361,22.30637775114
394,1192.05344522976
395,22.0037802192839
428,2782.68086950299
429,22.3017851838166
462,1181.72194646388
463,22.003780409988
496,1680.82363878105
497,22.0146280090592
615,3414.59068028356
658,3296.29473738368
2,1, 1,21, 0,21, 0.00,60.00,WinterDesignDay
6,-16.6
7,100.
8,4.9
9,270.
10,0.0
11,0.0
12,290.4
13,125.4
14,290.4
15,125.4
16,543.4
17,0.0
18,0.0
19,0.0
20,0.0
21,0.0
83,285120.
105,123120.
127,285120.
149,123120.
171,533520.
247,0.0
248,-0.165813733095992
249,-0.246266689080793
250,-6.461405056748990E-004
251,-0.328727219169783
252,-6.468446920472938E-004
253,-1.238361769423769E-002
326,2747.26612572451
327,17.4910696340157
360,2878.71504709964
361,22.30363026105
394,1192.19103801348
395,22.0037524164441
428,2778.0657289658
429,22.2980159151047
462,1181.85990051081
463,22.0037525768477
496,1681.4715500341
497,22.0145426567361
615,3410.73037485471
658,3291.50625964399
2,1, 1,21, 0,22, 0.00,60.00,WinterDesignDay
6,-16.6
7,100.
8,4.9
9,270.
10,0.0
11,0.0
12,290.4
13,125.4
14,290.4
15,125.4
16,543.4
17,0.0
18,0.0
19,0.0
20,0.0
21,0.0
83,285120.
105,123120.
127,285120.
149,123120.
171,533520.
247,0.0
248,-0.139219435626622
249,4.937339500097505E-002
250,6.029766432006392E-004
251,0.129573889048301
252,5.943311740450191E-004
253,1.316958302865188E-002
326,2747.36900677285
327,17.4895819390645
360,2882.44155352068
361,22.3041810995207
394,1192.31394618075
395,22.0037783619843
428,2782.61180239862
429,22.299501649274
462,1181.98265728137
463,22.0037781503811
496,1682.30053606142
497,22.0146334262414
615,3414.72921508702
658,3296.42301689691
2,1, 1,21, 0,23, 0.00,60.00,WinterDesignDay
6,-16.6
7,100.
8,4.9
9,270.
10,0.0
11,0.0
12,290.4
13,125.4
14,290.4
15,125.4
16,543.4
17,0.0
18,0.0
19,0.0
20,0.0
21,0.0
83,285120.
105,123120.
127,285120.
149,123120.
171,533520.
247,0.0
248,-9.900901722225766E-002
249,1.708639896611245E-002
250,1.295429751723170E-004
251,7.503370072918629E-002
252,1.310075729158861E-004
253,1.205801053845256E-003
326,2748.25161249163
327,17.4885239353584
360,2882.26639184295
361,22.3043717255035
394,1192.36240610273
395,22.0037839361016
428,2782.36679234479
429,22.3003620113306
462,1182.03125626497
463,22.0037837875187
496,1682.49394430561
497,22.0146417370564
615,3414.75034832366
658,3296.44471676427
2,1, 1,21, 0,24, 0.00,60.00,WinterDesignDay
6,-16.6
7,100.
8,4.9
9,270.
10,0.0
11,0.0
12,290.4
13,125.4
14,290.4
15,125.4
16,543.4
17,0.0
18,0.0
19,0.0
20,0.0
21,0.0
83,285120.
105,123120.
127,285120.
149,123120.
171,533520.
247,0.0
248,-7.365930152769756E-002
249,-2.346306173575391E-002
250,2.966821136384569E-005
251,2.118440527481781E-003
252,3.065124400552031E-005
253,1.446291180355555E-004
326,2748.84231303381
327,17.4877368191428
360,2882.180566996
361,22.3041099579274
394,1192.39421083524
395,22.003785212698
428,2782.2502981474
429,22.3003863020957
462,1182.06306525205
463,22.0037851064141
496,1682.68705964511
497,22.0146427338923
615,3414.75682889792
658,3296.45031848543
1,CHICAGO_IL_USA ANNUAL COOLING 1% DESIGN CONDITIONS DB/MCWB,  41.98, -87.92,  -6.00, 201.00
2,1, 7,21, 0, 1, 0.00,60.00,SummerDesignDay
6,22.36
7,83.8057629277919
8,5.2
9,230.
10,0.0
11,0.0
12,100.32
13,43.32
14,100.32
15,43.32
16,187.72
17,0.0
18,0.0
19,0.0
20,0.0
21,0.0
83,285120.
105,123120.
127,285120.
149,123120.
171,533520.
247,0.0
248,-85.2877095864612
249,-38.3105214473335
250,-10.9544239386167
251,-36.1819920708519
252,-16.0568753509832
253,-47.9086267136303
326,0.0
327,22.2487951777949
360,0.0
361,20.1198606676778
394,0.0
395,18.7215429969482
428,0.0
429,20.0949191787428
462,0.0
463,18.8470650264779
496,0.0
497,20.1052148108059
615,0.0
658,0.0
2,1, 7,21, 0, 2, 0.00,60.00,SummerDesignDay
6,21.94
7,85.977985920165
8,5.2
9,230.
10,0.0
11,0.0
12,100.32
13,43.32
14,100.32
15,43.32
16,187.72
17,0.0
18,0.0
19,0.0
20,0.0
21,0.0
83,285120.
105,123120.
127,285120.
149,123120.
171,533520.
247,0.0
248,-42.6834027412224
249,-14.6371802424334
250,-4.19794725122611
251,-14.01512335391
252,-5.63146925566429
253,-18.1712725520893
326,0.0
327,21.7629987564283
360,0.0
361,19.9283705248541
394,0.0
395,18.5208358032732
428,0.0
429,19.9073964652258
462,0.0
463,18.5730908969768
496,0.0
497,19.9547424635699
615,0.0
658,0.0
2,1, 7,21, 0, 3, 0.00,60.00,SummerDesignDay
6,21.625
7,87.6487996643588
8,5.2
9,230.
10,0.0
11,0.0
12,100.32
13,43.32
14,100.32
15,43.32
16,187.72
17,0.0
18,0.0
19,0.0
20,0.0
21,0.0
83,285120.
105,123120.
127,285120.
149,123120.
171,533520.
247,0.0
248,-36.8965360657167
249,-12.4379201570362
250,-3.40516916035657
251,-11.9549907701499
252,-4.37496833336579
253,-15.673989632313
326,0.0
327,21.3543528332155
360,0.0
361,19.7887447347342
394,0.0
395,18.372533619573
428,0.0
429,19.7695007102814
462,0.0
463,18.3814679459406
496,0.0
497,19.8465923944919
615,0.0
658,0.0
2,1, 7,21, 0, 4, 0.00,60.00,SummerDesignDay
6,21.31
7,89.3562171270326
8,5.2
9,230.
10,0.0
11,0.0
12,100.32
13,43.32
14,100.32
15,43.32
16,187.72
17,0.0
18,0.0
19,0.0
20,0.0
21,0.0
83,285120.
105,123120.
127,285120.
149,123120.
171,533520.
247,0.0
248,-31.472877160965
249,-10.0836721583054
250,-2.68454066164011
251,-9.72478623487492
252,-3.27053530266002
253,-12.5644180089512
326,0.0
327,21.008925455858
360,0.0
361,19.673947172038
394,0.0
395,18.2557243344869
428,0.0
429,19.655806451332
462,0.0
463,18.2382501360788
496,0.0
497,19.7575490512141
615,0.0
658,0.0
2,1, 7,21, 0, 5, 0.00,60.00,SummerDesignDay
6,21.1
7,90.5152776473043
8,5.2
9,230.
10,0.0
11,0.0
12,100.32
13,43.32
14,100.32
15,43.32
16,187.72
17,0.0
18,0.0
19,0.0
20,0.0
21,0.0
83,285120.
105,123120.
127,285120.
149,123120.
171,533520.
247,0.0
248,-26.7915757899066
249,-8.38787901820738
250,-2.17970556731367
251,-8.11440736702741
252,-2.56422571847779
253,-10.6189745307648
326,0.0
327,20.7199912617485
360,0.0
361,19.5814028971477
394,0.0
395,18.1633269906893
428,0.0
429,19.5637980888677
462,0.0
463,18.1295656458851
496,0.0
497,19.6850727786529
615,0.0
658,0.0
2,1, 7,21, 0, 6, 0.00,60.00,SummerDesignDay
6,21.31
7,89.3562171270326
8,5.2
9,230.
10,273.171282806012
11,0.0
12,100.32
13,43.32
14,100.32
15,43.32
16,187.72
17,0.0
18,0.0
19,0.0
20,0.0
21,0.0
83,285120.
105,123120.
127,285120.
149,123120.
171,533520.
247,25.4432242377324
248,-16.0188175054943
249,-0.2734135462769
250,20.1393048860126
251,82.3330738215545
252,0.549808899784034
253,-6.87949533430441
326,0.0
327,20.6164670996361
360,0.0
361,19.6075274475012
394,0.0
395,18.9946752036131
428,0.0
429,20.4256828519917
462,0.0
463,18.1861372481373
496,0.0
497,19.6666920228636
615,0.0
658,0.0
2,1, 7,21, 0, 7, 0.00,60.00,SummerDesignDay
6,22.045
7,85.4290804856334
8,5.2
9,230.
10,579.945701158361
11,0.0
12,100.32
13,43.32
14,100.32
15,43.32
16,187.72
17,0.0
18,0.0
19,0.0
20,0.0
21,0.0
83,285120.
105,123120.
127,285120.
149,123120.
171,533520.
247,61.3625562539547
248,15.7358678965412
249,16.08140973025
250,42.978397818439
251,118.603593215764
252,5.74534635971407
253,6.31699082835926
326,0.0
327,20.7720505540772
360,0.0
361,19.7683779248587
394,0.0
395,20.6104240053226
428,0.0
429,21.5455999919512
462,0.0
463,18.4096839398764
496,0.0
497,19.7090469235541
615,0.0
658,0.0
2,1, 7,21, 0, 8, 0.00,60.00,SummerDesignDay
6,23.83
7,76.6756809133385
8,5.2
9,230.
10,719.603118976406
11,0.0
12,100.32
13,43.32
14,100.32
15,43.32
16,187.72
17,0.0
18,0.0
19,0.0
20,0.0
21,0.0
83,285120.
105,123120.
127,285120.
149,123120.
171,533520.
247,85.5807400182532
248,36.4272014734742
249,24.773882020056
250,39.0930999522474
251,54.3501365366471
252,7.55661392829299
253,14.2201227631536
326,0.0
327,21.1517304526828
360,0.0
361,20.0351934410403
394,0.0
395,22.295083869506
428,0.0
429,22.2141941681166
462,0.0
463,18.7267853935598
496,0.0
497,19.8015534814037
615,0.0
658,0.0
2,1, 7,21, 0, 9, 0.00,60.00,SummerDesignDay
6,25.825
7,68.0672565020726
8,5.2
9,230.
10,792.598549604224
11,0.0
12,3137.639976504
13,1384.19998932
14,3137.639976504
15,1384.19998932
16,5802.79995728
17,11.
18,5.
19,11.
20,5.
21,20.
83,5132160.
105,2216160.
127,5132160.
149,2216160.
171,9603360.
247,106.271076304372
248,112.918248819146
249,196.772202429524
250,44.4026600380015
251,162.823630024192
252,55.047250724659
253,375.896611779518
326,246.447508645555
327,22.160597785421
360,0.0
361,22.0163027134346
394,0.0
395,23.9590298314598
428,0.0
429,23.8567664695364
462,0.0
463,20.9219372300325
496,0.0
497,22.1296964078556
615,0.0
658,0.0
2,1, 7,21, 0,10, 0.00,60.00,SummerDesignDay
6,27.61
7,61.2804748064114
8,5.2
9,230.
10,833.575750367276
11,0.0
12,3744.839976504
13,1646.39998932
14,3744.839976504
15,1646.39998932
16,6938.99995728
17,11.
18,5.
19,11.
20,5.
21,20.
83,5417280.
105,2339280.
127,5417280.
149,2339280.
171,10136880.
247,119.507518189838
248,116.291611702407
249,207.253377488709
250,7.44754602962348
251,36.4879664326286
252,47.5375185653345
253,327.074825257868
326,361.280486125162
327,23.1672189497517
360,0.0
361,23.7999033869045
394,0.0
395,24.0007276391357
428,0.0
429,23.9992207981417
462,0.0
463,22.4996776740156
496,0.0
497,23.7997240329016
615,0.0
658,0.0
2,1, 7,21, 0,11, 0.00,60.00,SummerDesignDay
6,29.185
7,55.9217028117865
8,5.2
9,230.
10,856.127859396695
11,0.0
12,3824.039976504
13,1680.59998932
14,3824.039976504
15,1680.59998932
16,7087.19995728
17,11.
18,5.
19,11.
20,5.
21,20.
83,5702400.
105,2462400.
127,5702400.
149,2462400.
171,10670400.
247,165.790722484599
248,100.595165776551
249,57.9466240009919
250,0.320954039239949
251,3.48418202719092
252,32.3214675200041
253,89.7213731587039
326,0.0
327,23.9809348745226
360,0.0
361,23.9964966798519
394,0.0
395,24.0036198929597
428,0.0
429,24.0032487441235
462,0.0
463,23.4438900662446
496,0.0
497,23.9977118096051
615,0.0
658,0.0
2,1, 7,21, 0,12, 0.00,60.00,SummerDesignDay
6,30.235
7,52.6436454421632
8,5.2
9,230.
10,866.106890446245
11,0.0
12,3486.9119812032
13,1529.159991456
14,3486.9119812032
15,1529.159991456
16,6470.039965824
17,8.8
18,4.
19,8.8
20,4.
21,16.
83,5417280.
105,2339280.
127,5417280.
149,2339280.
171,10136880.
247,231.363889677942
248,87.0589763819486
249,6.48872284713927
250,2.353335713645742E-002
251,0.156382241898825
252,17.5462174886976
253,10.3694746530772
326,0.0
327,24.6225407289138
360,0.0
361,24.0033388318966
394,0.0
395,24.0037266247627
428,0.0
429,24.0038299273706
462,0.0
463,23.8423431738611
496,0.0
497,24.0033660907608
615,0.0
658,0.0
2,1, 7,21, 0,13, 0.00,60.00,SummerDesignDay
6,31.075
7,50.1772385043601
8,5.2
9,230.
10,865.758328833418
11,0.0
12,2733.4559906016
13,1192.079995728
14,2733.4559906016
15,1192.079995728
16,5087.519982912
17,4.4
18,2.
19,4.4
20,2.
21,8.
83,4561920.
105,1969920.
127,4561920.
149,1969920.
171,8536320.
247,279.749090584436
248,85.5476327470769
249,0.311472143286497
250,-2.341217965086329E-002
251,-1.797999980591596E-002
252,2.43238662378971
253,0.352068825244915
326,0.0
327,25.1866766005481
360,0.0
361,24.0036642702574
394,0.0
395,24.002989236111
428,0.0
429,24.0036189766873
462,0.0
463,23.7415669624824
496,0.0
497,24.0031674644089
615,0.0
658,0.0
2,1, 7,21, 0,14, 0.00,60.00,SummerDesignDay
6,31.6
7,48.702179534817
8,5.2
9,230.
10,855.00717865924
11,0.0
12,3407.7119812032
13,1494.959991456
14,3407.7119812032
15,1494.959991456
16,6321.839965824
17,8.8
18,4.
19,8.8
20,4.
21,16.
83,5132160.
105,2216160.
127,5132160.
149,2216160.
171,9603360.
247,305.972424813874
248,35.585229934086
249,-2.579837700954977E-002
250,3.356964600035456E-005
251,-2.518596716412225E-002
252,5.50372682204081
253,2.370598643574388E-002
326,0.0
327,25.5943898034048
360,0.0
361,24.0032317752843
394,0.0
395,24.0020106131323
428,0.0
429,24.0030483216479
462,0.0
463,23.9606470846388
496,0.0
497,24.0032509959056
615,0.0
658,0.0
2,1, 7,21, 0,15, 0.00,60.00,SummerDesignDay
6,31.6
7,48.702179534817
8,5.2
9,230.
10,831.417887254382
11,0.0
12,3718.439976504
13,1634.99998932
14,3718.439976504
15,1634.99998932
16,6889.59995728
17,11.
18,5.
19,11.
20,5.
21,20.
83,5702400.
105,2462400.
127,5702400.
149,2462400.
171,10670400.
247,320.26832842353
248,26.8932559048437
249,0.105942914591677
250,5.524769100023628E-002
251,0.106496814857243
252,0.360299821285747
253,0.363624838804052
326,0.0
327,25.904268169968
360,0.0
361,24.0036080655386
394,0.0
395,24.0038839810615
428,0.0
429,24.0034857634417
462,0.0
463,23.9963710098287
496,0.0
497,24.00477400315
615,0.0
658,0.0
2,1, 7,21, 0,16, 0.00,60.00,SummerDesignDay
6,30.97
7,50.4782650726692
8,5.2
9,230.
10,788.78506146792
11,0.0
12,3612.839976504
13,1589.39998932
14,3612.839976504
15,1589.39998932
16,6691.99995728
17,11.
18,5.
19,11.
20,5.
21,20.
83,5702400.
105,2462400.
127,5702400.
149,2462400.
171,10670400.
247,331.647984400524
248,18.0591772728433
249,0.175717684257982
250,5.251582234412783E-002
251,0.169973097642213
252,0.204697453720067
253,0.394738065825385
326,0.0
327,26.1025382655406
360,0.0
361,24.0055755136116
394,0.0
395,24.0061541567892
428,0.0
429,24.0054417332819
462,0.0
463,24.0052202699295
496,0.0
497,24.0075069022887
615,0.0
658,0.0
2,1, 7,21, 0,17, 0.00,60.00,SummerDesignDay
6,30.13
7,52.9614851069612
8,5.2
9,230.
10,712.663490206077
11,0.0
12,3401.639976504
13,1498.19998932
14,3401.639976504
15,1498.19998932
16,6296.79995728
17,11.
18,5.
19,11.
20,5.
21,20.
83,5702400.
105,2462400.
127,5702400.
149,2462400.
171,10670400.
247,289.592362912588
248,9.167988640683